LAMMPS data file via write_data, version 16 Mar 2018, timestep = 0

4000 atoms
2 atom types
4012 bonds
2 bond types

-2.3932011751700252e+03 -2.3727841410831470e+03 xlo xhi
-2.0326055436607305e+02 -1.8430758728486495e+02 ylo yhi
1.4995891363396265e+02 1.6915535256848636e+02 zlo zhi

Masses

1 1
2 1

Atoms # bond

311 1 2 -2.3856797251486937e+03 -1.9802184775956414e+02 1.5232772591351304e+02 0 0 0
333 1 2 -2.3867296794807403e+03 -1.9787775094934415e+02 1.5254657957185537e+02 0 0 0
312 1 2 -2.3852843703169042e+03 -1.9884344927625528e+02 1.5252793792531315e+02 0 0 0
313 1 2 -2.3844194290329315e+03 -1.9901710381809113e+02 1.5210458044486114e+02 0 0 0
314 1 2 -2.3841729616229695e+03 -1.9811023481910786e+02 1.5227070555483098e+02 0 0 0
318 1 2 -2.3827802991671606e+03 -1.9810218466352680e+02 1.5267805975101109e+02 0 0 0
320 1 2 -2.3828500496505862e+03 -1.9919519364168704e+02 1.5259066960355375e+02 0 0 0
1983 1 2 -2.3812619229725983e+03 -1.9784686447390726e+02 1.5234710347794748e+02 0 0 0
519 1 2 -2.3884556383935310e+03 -1.9615343877603834e+02 1.5228571943919545e+02 0 0 0
518 1 2 -2.3890635811212719e+03 -1.9541058203624175e+02 1.5222023579957096e+02 0 0 0
9 1 1 -2.3880434138933083e+03 -1.9571823748010371e+02 1.5136373881905004e+02 0 0 0
1952 1 1 -2.3870044850207269e+03 -1.9536624189450802e+02 1.5124523623061987e+02 0 0 0
508 1 1 -2.3873150619204243e+03 -1.9582719638491622e+02 1.5240931618597571e+02 0 0 0
1947 1 2 -2.3867597648178289e+03 -1.9634556924383031e+02 1.5162998458296835e+02 0 0 0
1943 1 1 -2.3863733705604591e+03 -1.9544286151206771e+02 1.5212309310302666e+02 0 0 0
1948 1 1 -2.3860503203416156e+03 -1.9583826300248555e+02 1.5110409185540161e+02 0 0 0
1946 1 2 -2.3861937202031595e+03 -1.9714027889452720e+02 1.5185878165808202e+02 0 0 0
1949 1 1 -2.3866167969705189e+03 -1.9578811542108926e+02 1.5032526135525561e+02 0 0 0
1944 1 2 -2.3857098453549943e+03 -1.9611485820076831e+02 1.5205757747845939e+02 0 0 0
334 1 2 -2.3872767697490972e+03 -1.9715611370071531e+02 1.5223510388667628e+02 0 0 0
1862 1 2 -2.3847480088881211e+03 -1.9704369185671939e+02 1.5205777532689331e+02 0 0 0
1945 1 2 -2.3854881654055821e+03 -1.9668960388554038e+02 1.5130449396752300e+02 0 0 0
1857 1 2 -2.3850986997110058e+03 -1.9541576585677552e+02 1.5085429674183393e+02 0 0 0
1863 1 2 -2.3839983147596058e+03 -1.9715869992599605e+02 1.5145333460241275e+02 0 0 0
1855 1 2 -2.3842571771557264e+03 -1.9613051243819589e+02 1.5067130321926402e+02 0 0 0
1856 1 2 -2.3847015305226892e+03 -1.9599357585649051e+02 1.5152794489822983e+02 0 0 0
1854 1 2 -2.3838295846361034e+03 -1.9530664169024178e+02 1.5071447863558609e+02 0 0 0
1864 1 2 -2.3836496232089562e+03 -1.9629344064831324e+02 1.5170230864984711e+02 0 0 0
1865 1 2 -2.3836850134847114e+03 -1.9535208504689984e+02 1.5175120898360998e+02 0 0 0
1859 1 2 -2.3850252521468551e+03 -1.9540551455243624e+02 1.5238171758368529e+02 0 0 0
1861 1 2 -2.3841264275239068e+03 -1.9654547252986171e+02 1.5260581994538009e+02 0 0 0
317 1 2 -2.3832886141343070e+03 -1.9751279509990837e+02 1.5214067315842956e+02 0 0 0
1972 1 2 -2.3831037323847172e+03 -1.9583046247257198e+02 1.5252412295954406e+02 0 0 0
1973 1 2 -2.3825544704424892e+03 -1.9643902160543854e+02 1.5200480529637713e+02 0 0 0
2185 1 2 -2.3813993324863541e+03 -1.9624842484363276e+02 1.5183624137158898e+02 0 0 0
2186 1 2 -2.3807628769059406e+03 -1.9693514853652260e+02 1.5170066778685731e+02 0 0 0
1974 1 2 -2.3821063254997543e+03 -1.9718010452794721e+02 1.5244514956602902e+02 0 0 0
1971 1 2 -2.3824041653724207e+03 -1.9518213099171302e+02 1.5238636981069121e+02 0 0 0
2188 1 1 -2.3805094280750400e+03 -1.9629663825868280e+02 1.5253205323295865e+02 0 0 0
2184 1 2 -2.3808711850878099e+03 -1.9544703343522642e+02 1.5169844634150692e+02 0 0 0
2187 1 2 -2.3798981684308092e+03 -1.9678307574799788e+02 1.5202484210321745e+02 0 0 0
1993 1 2 -2.3801817735700806e+03 -1.9528312616036757e+02 1.5267091909700562e+02 0 0 0
2241 1 2 -2.3794166475830393e+03 -1.9567369231151341e+02 1.5202055621545978e+02 0 0 0
8 1 1 -2.3881041081642697e+03 -1.9506639384872952e+02 1.5205199825667006e+02 0 0 0
12 1 1 -2.3891996569411804e+03 -1.9409593943866238e+02 1.5179777921193354e+02 0 0 0
13 1 1 -2.3893316655664316e+03 -1.9316522401565010e+02 1.5213740050123729e+02 0 0 0
11 1 1 -2.3887505698782238e+03 -1.9468039282533817e+02 1.5121957903565431e+02 0 0 0
1 1 1 -2.3886399351563268e+03 -1.9277848641866117e+02 1.5134696081441345e+02 0 0 0
28 1 1 -2.3881626481795420e+03 -1.9257224339205860e+02 1.5248944380138448e+02 0 0 0
1950 1 1 -2.3860647265643506e+03 -1.9504574400477284e+02 1.5032618248728429e+02 0 0 0
10 1 1 -2.3880606557135898e+03 -1.9505398894074975e+02 1.5059638451715151e+02 0 0 0
1951 1 1 -2.3863686234738029e+03 -1.9457926080249868e+02 1.5112289273907706e+02 0 0 0
7 1 1 -2.3879266538804673e+03 -1.9425643636571647e+02 1.5254423617962649e+02 0 0 0
6 1 1 -2.3880906141516371e+03 -1.9352788326692999e+02 1.5194516918872372e+02 0 0 0
2 1 1 -2.3877075278037146e+03 -1.9278935616336361e+02 1.5099738056670205e+02 0 0 0
1942 1 1 -2.3869546990541376e+03 -1.9465101172765884e+02 1.5206280027393063e+02 0 0 0
1958 1 2 -2.3858137026476029e+03 -1.9465311665866309e+02 1.5251343664170182e+02 0 0 0
1953 1 1 -2.3871011634895012e+03 -1.9479898389460880e+02 1.5038466379162332e+02 0 0 0
1954 1 1 -2.3866504885980389e+03 -1.9401591107088447e+02 1.4996083331338673e+02 0 0 0
1941 1 1 -2.3875745716684191e+03 -1.9439026122393238e+02 1.5138885715052714e+02 0 0 0
5 1 1 -2.3871080501404272e+03 -1.9353386910847414e+02 1.5186613909880194e+02 0 0 0
1940 1 1 -2.3872269138573884e+03 -1.9367589676451621e+02 1.5085855246101073e+02 0 0 0
3 1 1 -2.3871233638598765e+03 -1.9246093398635796e+02 1.5177874672531658e+02 0 0 0
1939 1 1 -2.3867504693155870e+03 -1.9272770951185086e+02 1.5057800605643098e+02 0 0 0
1956 1 1 -2.3861444585295621e+03 -1.9333925243592753e+02 1.5126702460538041e+02 0 0 0
4 1 1 -2.3864674953280851e+03 -1.9295001010072576e+02 1.5229904999232136e+02 0 0 0
1957 1 1 -2.3860950592086042e+03 -1.9395033263210163e+02 1.5196479530404963e+02 0 0 0
1955 1 1 -2.3859024022159306e+03 -1.9358107926413254e+02 1.5036026950482153e+02 0 0 0
1858 1 2 -2.3855075306786671e+03 -1.9508041114451748e+02 1.5160748869078310e+02 0 0 0
1866 1 2 -2.3844615139632938e+03 -1.9483646316766377e+02 1.5156801781176804e+02 0 0 0
1867 1 2 -2.3845083390402069e+03 -1.9448405370757288e+02 1.5066755339146331e+02 0 0 0
1868 1 1 -2.3853136985951774e+03 -1.9417280086911381e+02 1.5104979473786213e+02 0 0 0
1959 1 2 -2.3850639388535037e+03 -1.9424737963703319e+02 1.5209154938669428e+02 0 0 0
1869 1 1 -2.3849269598679098e+03 -1.9332721480641703e+02 1.5070088190256624e+02 0 0 0
1870 1 1 -2.3851400597817342e+03 -1.9291142731694848e+02 1.5157786240387469e+02 0 0 0
904 1 2 -2.3854342341741126e+03 -1.9336772150165532e+02 1.5249105604898338e+02 0 0 0
1960 1 2 -2.3844915808708620e+03 -1.9368441069192170e+02 1.5164589932311682e+02 0 0 0
899 1 2 -2.3845629160806770e+03 -1.9275160771146079e+02 1.5250995121667106e+02 0 0 0
1871 1 2 -2.3842972095357068e+03 -1.9267073711716139e+02 1.5114651524919967e+02 0 0 0
1872 1 2 -2.3837869264888418e+03 -1.9299931925634735e+02 1.5187147322606180e+02 0 0 0
1853 1 2 -2.3834933405615529e+03 -1.9442984687715924e+02 1.5088200959737563e+02 0 0 0
1961 1 2 -2.3836989576960746e+03 -1.9425411355751510e+02 1.5195890207839483e+02 0 0 0
1852 1 2 -2.3838079651984976e+03 -1.9356658754281921e+02 1.5082073789580900e+02 0 0 0
900 1 2 -2.3842925277042427e+03 -1.9362398960728547e+02 1.5261712819276093e+02 0 0 0
2182 1 2 -2.3816545328894076e+03 -1.9477356603830160e+02 1.5170097381787724e+02 0 0 0
1969 1 2 -2.3824011798188303e+03 -1.9455432628269025e+02 1.5093141363525811e+02 0 0 0
2183 1 2 -2.3809010061371787e+03 -1.9468699908807469e+02 1.5107550995649908e+02 0 0 0
1970 1 2 -2.3825931384660935e+03 -1.9441834148401003e+02 1.5185627848171487e+02 0 0 0
1850 1 2 -2.3826331056935442e+03 -1.9304968741334486e+02 1.5054962846432295e+02 0 0 0
1851 1 2 -2.3829312950765188e+03 -1.9349595629151582e+02 1.5129198920988486e+02 0 0 0
1874 1 2 -2.3828203138211147e+03 -1.9264852125113015e+02 1.5217439247428396e+02 0 0 0
1967 1 2 -2.3821797532199239e+03 -1.9339295504827163e+02 1.5206707529053557e+02 0 0 0
1968 1 2 -2.3818547629307491e+03 -1.9380128389373445e+02 1.5123732063280681e+02 0 0 0
1849 1 2 -2.3821955275392797e+03 -1.9264196360209829e+02 1.5128270563639788e+02 0 0 0
1848 1 2 -2.3812880015763835e+03 -1.9275336858917527e+02 1.5168509702659151e+02 0 0 0
1995 1 2 -2.3810589455080808e+03 -1.9387434464833822e+02 1.5185198933219525e+02 0 0 0
1994 1 2 -2.3808541443669296e+03 -1.9464522651115087e+02 1.5237265764823550e+02 0 0 0
1966 1 2 -2.3828893736101395e+03 -1.9365709789069851e+02 1.5258739254555508e+02 0 0 0
2181 1 2 -2.3818241050860670e+03 -1.9429660027801950e+02 1.5251699221309750e+02 0 0 0
1847 1 2 -2.3816920727605266e+03 -1.9258678644811664e+02 1.5252055217916958e+02 0 0 0
1996 1 2 -2.3809347820277321e+03 -1.9339676366799230e+02 1.5263734207411113e+02 0 0 0
2242 1 2 -2.3797133327604288e+03 -1.9479767069746575e+02 1.5184086582117681e+02 0 0 0
2243 1 2 -2.3799948539789393e+03 -1.9391064564661477e+02 1.5155372675591215e+02 0 0 0
1883 1 2 -2.3802068980595868e+03 -1.9280322508077055e+02 1.5202480133185449e+02 0 0 0
2252 1 2 -2.3791189437172520e+03 -1.9325298531007164e+02 1.5219867180471655e+02 0 0 0
2253 1 2 -2.3781364823153167e+03 -1.9326899344912604e+02 1.5221584110866792e+02 0 0 0
2244 1 2 -2.3800667892535039e+03 -1.9397146789226204e+02 1.5246149735358955e+02 0 0 0
2247 1 2 -2.3787146319393260e+03 -1.9427936983554079e+02 1.5253453473780576e+02 0 0 0
2254 1 2 -2.3777072870048200e+03 -1.9401533554712168e+02 1.5258803800161240e+02 0 0 0
27 1 1 -2.3888427966383765e+03 -1.9203568035016193e+02 1.5210765636449608e+02 0 0 0
1936 1 1 -2.3860469735785832e+03 -1.9225302041325648e+02 1.5158010416942568e+02 0 0 0
1924 1 1 -2.3859840851638774e+03 -1.9159326770791193e+02 1.5049300967107180e+02 0 0 0
1935 1 1 -2.3855578627110426e+03 -1.9232805611168476e+02 1.5243407367464991e+02 0 0 0
1925 1 1 -2.3856524896838400e+03 -1.9242810404836266e+02 1.5066501331593304e+02 0 0 0
1938 1 1 -2.3871776808266327e+03 -1.9188619633599052e+02 1.5084520284824902e+02 0 0 0
1937 1 1 -2.3866143824381911e+03 -1.9146641433139891e+02 1.5148677760127870e+02 0 0 0
32 1 1 -2.3865276143296792e+03 -1.9175291765155086e+02 1.5250496428174560e+02 0 0 0
1923 1 1 -2.3863400668518507e+03 -1.9077466511485389e+02 1.5060328896454686e+02 0 0 0
26 1 1 -2.3880448064910261e+03 -1.9184234269887969e+02 1.5156522198571588e+02 0 0 0
25 1 1 -2.3874741157825310e+03 -1.9138535780274086e+02 1.5211690632908380e+02 0 0 0
24 1 1 -2.3874993045546257e+03 -1.9080148834725367e+02 1.5132764058150701e+02 0 0 0
20 1 1 -2.3873951030567259e+03 -1.9017126175424875e+02 1.5239353982714846e+02 0 0 0
23 1 1 -2.3867125539762733e+03 -1.9023696221636314e+02 1.5143992546046852e+02 0 0 0
1920 1 1 -2.3862959867937584e+03 -1.9063988939928612e+02 1.5229465357267668e+02 0 0 0
1922 1 1 -2.3857383897344107e+03 -1.9091338178797974e+02 1.5127716314895494e+02 0 0 0
1921 1 1 -2.3857298992433848e+03 -1.9131969899017002e+02 1.5210545436759665e+02 0 0 0
2174 1 2 -2.3837394689478306e+03 -1.9199124168820788e+02 1.5233458212236354e+02 0 0 0
1873 1 2 -2.3832188354813597e+03 -1.9239923925905768e+02 1.5136970065081596e+02 0 0 0
1926 1 1 -2.3850841098636693e+03 -1.9170616592080478e+02 1.5102443309454614e+02 0 0 0
1931 1 1 -2.3847352743290048e+03 -1.9077292540494994e+02 1.5180035689650916e+02 0 0 0
1897 1 1 -2.3855053538548236e+03 -1.8994191292713779e+02 1.5186356678522273e+02 0 0 0
1927 1 1 -2.3846918366258610e+03 -1.9186382928177298e+02 1.5186106347403779e+02 0 0 0
1929 1 1 -2.3838024573444077e+03 -1.9049257238231718e+02 1.5136106454246388e+02 0 0 0
1928 1 1 -2.3839796823602046e+03 -1.9144231767340449e+02 1.5135499709418374e+02 0 0 0
1930 1 1 -2.3846317631171310e+03 -1.9058393197784983e+02 1.5089627492407462e+02 0 0 0
1932 1 1 -2.3842621218904160e+03 -1.9018573425653273e+02 1.5242288697031202e+02 0 0 0
2173 1 2 -2.3833310465775467e+03 -1.9103918253479696e+02 1.5246745677766677e+02 0 0 0
2172 1 2 -2.3831743292777196e+03 -1.9013259538324269e+02 1.5216800595383930e+02 0 0 0
1876 1 2 -2.3828546989566803e+03 -1.9130713128345693e+02 1.5138361761712457e+02 0 0 0
1875 1 2 -2.3823742457500070e+03 -1.9185114133506872e+02 1.5208061553117145e+02 0 0 0
1877 1 1 -2.3825091150527719e+03 -1.9045295185627450e+02 1.5144888755556471e+02 0 0 0
1878 1 2 -2.3816702649839362e+03 -1.9084765291666434e+02 1.5161108471687035e+02 0 0 0
1879 1 2 -2.3821868643108328e+03 -1.9075700802584629e+02 1.5241463504398465e+02 0 0 0
1881 1 2 -2.3811598846699058e+03 -1.9165059245782467e+02 1.5215059610130155e+02 0 0 0
1882 1 1 -2.3804653484902451e+03 -1.9194636290252910e+02 1.5158605029910629e+02 0 0 0
1888 1 2 -2.3806596419145767e+03 -1.9060524524933285e+02 1.5223636936031735e+02 0 0 0
1885 1 2 -2.3798520945781315e+03 -1.9178108221059381e+02 1.5252414270829985e+02 0 0 0
1886 1 2 -2.3796633633170572e+03 -1.9081984542646572e+02 1.5245449414545678e+02 0 0 0
1832 1 1 -2.3786762658275052e+03 -1.9188445300143471e+02 1.5254573193670240e+02 0 0 0
1831 1 2 -2.3778813930405809e+03 -1.9217850338106041e+02 1.5203227698512237e+02 0 0 0
22 1 1 -2.3864606685780036e+03 -1.8963774655039740e+02 1.5218978070972946e+02 0 0 0
1898 1 1 -2.3856020749254885e+03 -1.8910105808314196e+02 1.5237072349831848e+02 0 0 0
1896 1 1 -2.3846813336481155e+03 -1.8963854842308996e+02 1.5148914100544690e+02 0 0 0
1097 1 1 -2.3845460801906283e+03 -1.8903696659685750e+02 1.5241356006277189e+02 0 0 0
1895 1 1 -2.3837804787533159e+03 -1.8940222242219878e+02 1.5176194904528344e+02 0 0 0
1098 1 1 -2.3842347884994138e+03 -1.8808230916701498e+02 1.5253699492983563e+02 0 0 0
1099 1 1 -2.3832863554190403e+03 -1.8830770624775394e+02 1.5242818078484484e+02 0 0 0
1894 1 1 -2.3827920928975732e+03 -1.8916897482731480e+02 1.5156006948641229e+02 0 0 0
1890 1 2 -2.3817678817418750e+03 -1.8971000176993394e+02 1.5256413717698979e+02 0 0 0
1893 1 1 -2.3826773400941206e+03 -1.8908403531663717e+02 1.5256517014245162e+02 0 0 0
351 1 2 -2.3851522403077220e+03 -2.0056519810558453e+02 1.5491658936309327e+02 0 0 0
354 1 2 -2.3832140655907974e+03 -2.0087857420865564e+02 1.5487838590461308e+02 0 0 0
352 1 2 -2.3842960450626829e+03 -2.0088037400647357e+02 1.5470323463314747e+02 0 0 0
3768 1 2 -2.3816627123921385e+03 -2.0068999809904091e+02 1.5483473981792213e+02 0 0 0
385 1 2 -2.3889916981634169e+03 -1.9830759513996827e+02 1.5505843836719106e+02 0 0 0
384 1 2 -2.3887014244164066e+03 -1.9846439594962789e+02 1.5415385868443173e+02 0 0 0
227 1 2 -2.3883754800800298e+03 -2.0019098347158004e+02 1.5529268141367962e+02 0 0 0
226 1 2 -2.3885016628028634e+03 -1.9930182358561146e+02 1.5498953495897931e+02 0 0 0
332 1 2 -2.3872098510602705e+03 -1.9853156639925524e+02 1.5303331179819656e+02 0 0 0
383 1 2 -2.3878068212105259e+03 -1.9882539929009761e+02 1.5415603884542324e+02 0 0 0
387 1 2 -2.3878493844917070e+03 -1.9830097606501798e+02 1.5510721255661494e+02 0 0 0
349 1 2 -2.3867636354761398e+03 -2.0005403574789742e+02 1.5438740859269475e+02 0 0 0
348 1 2 -2.3876881683344445e+03 -1.9988256996236694e+02 1.5451515319779944e+02 0 0 0
382 1 2 -2.3869061855968221e+03 -1.9906926642403383e+02 1.5397636314836942e+02 0 0 0
388 1 2 -2.3869969363364603e+03 -1.9824086854522247e+02 1.5459233849138676e+02 0 0 0
347 1 2 -2.3872978112270212e+03 -1.9923335968045438e+02 1.5504076209000448e+02 0 0 0
331 1 2 -2.3865893033102202e+03 -1.9805087776833977e+02 1.5358137916788144e+02 0 0 0
381 1 2 -2.3860031333404859e+03 -1.9889461113713764e+02 1.5422448500273543e+02 0 0 0
328 1 2 -2.3861458926596847e+03 -1.9886889720873990e+02 1.5312702205128249e+02 0 0 0
327 1 2 -2.3856119494345676e+03 -1.9967577028939718e+02 1.5319158951444774e+02 0 0 0
229 1 2 -2.3865125996152838e+03 -2.0046578664976710e+02 1.5542367967004125e+02 0 0 0
345 1 2 -2.3862405668113051e+03 -1.9854827094985919e+02 1.5522825177588987e+02 0 0 0
346 1 2 -2.3863659601773925e+03 -1.9945173297153761e+02 1.5518029683657821e+02 0 0 0
350 1 2 -2.3858028184427862e+03 -2.0001137253232039e+02 1.5447409146903883e+02 0 0 0
228 1 2 -2.3874134650670580e+03 -2.0051692424759369e+02 1.5534220344467155e+02 0 0 0
305 1 2 -2.3847004157925358e+03 -2.0028893326877670e+02 1.5374797157240334e+02 0 0 0
353 1 2 -2.3835996191776203e+03 -2.0046106244681584e+02 1.5413784313012630e+02 0 0 0
329 1 2 -2.3855208849230412e+03 -1.9829356930651218e+02 1.5347308687967674e+02 0 0 0
326 1 2 -2.3850182237355921e+03 -1.9917542018289538e+02 1.5374159208152332e+02 0 0 0
380 1 2 -2.3853090020157683e+03 -1.9828680310542561e+02 1.5467255792460634e+02 0 0 0
379 1 2 -2.3852008346046837e+03 -1.9920934961944181e+02 1.5487882021640596e+02 0 0 0
306 1 2 -2.3845156207290297e+03 -1.9996947272306525e+02 1.5288164443010299e+02 0 0 0
309 1 2 -2.3844536419314800e+03 -1.9825882963368295e+02 1.5324696549450007e+02 0 0 0
325 1 2 -2.3844512021754235e+03 -1.9866296011613417e+02 1.5429842145925997e+02 0 0 0
304 1 2 -2.3843276721389811e+03 -1.9965970001503547e+02 1.5433982236116185e+02 0 0 0
308 1 2 -2.3834716018614304e+03 -1.9852598902008882e+02 1.5331150093309179e+02 0 0 0
307 1 2 -2.3839381910238599e+03 -1.9933840033801135e+02 1.5330463731025634e+02 0 0 0
323 1 2 -2.3832021807595838e+03 -1.9936791002349142e+02 1.5434742313357606e+02 0 0 0
324 1 2 -2.3835431924192289e+03 -1.9858521484263878e+02 1.5459004783052225e+02 0 0 0
303 1 2 -2.3838460796995919e+03 -1.9992247690048782e+02 1.5508846106273319e+02 0 0 0
301 1 2 -2.3842717317644801e+03 -1.9894333769976976e+02 1.5532390737612684e+02 0 0 0
319 1 2 -2.3821086670463515e+03 -1.9874223544193336e+02 1.5290759376996147e+02 0 0 0
3767 1 2 -2.3823738329851735e+03 -2.0030553578738053e+02 1.5432977781970868e+02 0 0 0
321 1 2 -2.3826958988091869e+03 -1.9964878051246333e+02 1.5344598676723479e+02 0 0 0
322 1 2 -2.3824726991507850e+03 -1.9885191383557984e+02 1.5402489982878245e+02 0 0 0
1977 1 2 -2.3821458137455588e+03 -1.9791891391356518e+02 1.5438913949872384e+02 0 0 0
1981 1 2 -2.3814423254974708e+03 -1.9866541836707313e+02 1.5380058921068840e+02 0 0 0
1979 1 2 -2.3818237553393678e+03 -1.9827288524539875e+02 1.5536608263268371e+02 0 0 0
1980 1 2 -2.3812303835603343e+03 -1.9834853392376726e+02 1.5467752507405572e+02 0 0 0
1982 1 2 -2.3810687447838227e+03 -1.9868640509114644e+02 1.5281369716564868e+02 0 0 0
3751 1 2 -2.3809238576041353e+03 -1.9943930655295281e+02 1.5451357384423781e+02 0 0 0
3766 1 2 -2.3825465449937351e+03 -2.0011886250977292e+02 1.5522570167784733e+02 0 0 0
1978 1 2 -2.3826538882539030e+03 -1.9839329263910432e+02 1.5500689769362356e+02 0 0 0
3750 1 2 -2.3818632612307838e+03 -1.9922578653477549e+02 1.5481157102960140e+02 0 0 0
3769 1 2 -2.3814853199779081e+03 -1.9992655101297044e+02 1.5544220748532439e+02 0 0 0
2028 1 2 -2.3797197560610284e+03 -1.9808563562648399e+02 1.5430774442796775e+02 0 0 0
2027 1 2 -2.3801339746025783e+03 -1.9894317048959266e+02 1.5410331018728556e+02 0 0 0
3752 1 2 -2.3802934718153697e+03 -1.9994900556594339e+02 1.5517863318622304e+02 0 0 0
2026 1 2 -2.3802404080593828e+03 -1.9870838870782282e+02 1.5505260895019995e+02 0 0 0
3753 1 2 -2.3795315451969614e+03 -1.9952891328153203e+02 1.5477956041983123e+02 0 0 0
2022 1 2 -2.3782234928678981e+03 -1.9911921589138910e+02 1.5482912542251137e+02 0 0 0
2023 1 2 -2.3786596645947275e+03 -1.9832338334482549e+02 1.5447223112152983e+02 0 0 0
3754 1 2 -2.3793024453494081e+03 -2.0022773606275882e+02 1.5541899930771979e+02 0 0 0
2024 1 2 -2.3792302619701813e+03 -1.9859907307859623e+02 1.5518107826564744e+02 0 0 0
2021 1 1 -2.3772930229427666e+03 -1.9917976226462497e+02 1.5521834193213490e+02 0 0 0
2019 1 2 -2.3776812909403270e+03 -1.9801548118490251e+02 1.5496961887246036e+02 0 0 0
2018 1 2 -2.3767953291517338e+03 -1.9815717352879753e+02 1.5475337980943078e+02 0 0 0
496 1 2 -2.3908262940425670e+03 -1.9577509191041818e+02 1.5472364433274774e+02 0 0 0
405 1 2 -2.3892048960035959e+03 -1.9755510355260265e+02 1.5402663274865347e+02 0 0 0
406 1 2 -2.3884664518148861e+03 -1.9746890480094518e+02 1.5457661379352345e+02 0 0 0
520 1 2 -2.3886318773940216e+03 -1.9594617002696404e+02 1.5322111074840390e+02 0 0 0
401 1 2 -2.3899348961310116e+03 -1.9673938321936146e+02 1.5463668408228793e+02 0 0 0
400 1 2 -2.3894520957336331e+03 -1.9740530987017576e+02 1.5508879208048373e+02 0 0 0
514 1 2 -2.3900286269294534e+03 -1.9579361931441898e+02 1.5403473713592356e+02 0 0 0
497 1 2 -2.3899288767031499e+03 -1.9581820682496991e+02 1.5511229328626118e+02 0 0 0
403 1 2 -2.3895262513952766e+03 -1.9667124932853633e+02 1.5356741537158356e+02 0 0 0
402 1 2 -2.3890334087522378e+03 -1.9654918941222340e+02 1.5437595103099821e+02 0 0 0
498 1 2 -2.3889274447425964e+03 -1.9570734890913789e+02 1.5514543636187173e+02 0 0 0
513 1 2 -2.3891071982810363e+03 -1.9555331422875858e+02 1.5407833014062430e+02 0 0 0
404 1 2 -2.3887265753461561e+03 -1.9707107933522454e+02 1.5330608568162117e+02 0 0 0
512 1 2 -2.3882075440965546e+03 -1.9578913581376619e+02 1.5423245089000397e+02 0 0 0
499 1 2 -2.3882017685446353e+03 -1.9633416521993294e+02 1.5510632879333258e+02 0 0 0
337 1 2 -2.3864989965834470e+03 -1.9649213951480587e+02 1.5277586292114350e+02 0 0 0
335 1 2 -2.3877251740524007e+03 -1.9754429854740195e+02 1.5303162174540316e+02 0 0 0
389 1 2 -2.3876459884378141e+03 -1.9775134038397448e+02 1.5402038821949489e+02 0 0 0
521 1 2 -2.3878729692133211e+03 -1.9538649388755346e+02 1.5324605517511935e+02 0 0 0
511 1 2 -2.3880145671181076e+03 -1.9669608559157135e+02 1.5406590050838855e+02 0 0 0
391 1 2 -2.3875303604771880e+03 -1.9728695225269206e+02 1.5509872462759600e+02 0 0 0
509 1 2 -2.3876965050327367e+03 -1.9648165181429556e+02 1.5303304265438175e+02 0 0 0
501 1 2 -2.3878432724799095e+03 -1.9528663518386335e+02 1.5506464117381861e+02 0 0 0
336 1 2 -2.3869402147018645e+03 -1.9710386040408869e+02 1.5337256699310052e+02 0 0 0
343 1 2 -2.3862412211875730e+03 -1.9753038339068786e+02 1.5497192539918322e+02 0 0 0
390 1 2 -2.3870459009721872e+03 -1.9707259460268199e+02 1.5432916204342595e+02 0 0 0
510 1 2 -2.3872998602480284e+03 -1.9616002731882051e+02 1.5382879623012940e+02 0 0 0
500 1 2 -2.3873330596730384e+03 -1.9616965786641805e+02 1.5494419472170156e+02 0 0 0
341 1 2 -2.3862571717784622e+03 -1.9638711077348370e+02 1.5378213438806853e+02 0 0 0
507 1 2 -2.3867838163381780e+03 -1.9540945773421356e+02 1.5312075769663335e+02 0 0 0
503 1 2 -2.3864813301485769e+03 -1.9546854472902129e+02 1.5434632824097150e+02 0 0 0
342 1 2 -2.3861785109116877e+03 -1.9669727781507973e+02 1.5469914707131636e+02 0 0 0
330 1 2 -2.3859148923054599e+03 -1.9761196221806500e+02 1.5400039978679249e+02 0 0 0
338 1 2 -2.3859121946389382e+03 -1.9718462433240126e+02 1.5294370843571642e+02 0 0 0
340 1 2 -2.3857390017942812e+03 -1.9577802906932092e+02 1.5317764334043619e+02 0 0 0
504 1 2 -2.3855749508254603e+03 -1.9548387248018730e+02 1.5416564165857844e+02 0 0 0
285 1 2 -2.3862346454668809e+03 -1.9590591901420495e+02 1.5542747757767626e+02 0 0 0
1860 1 2 -2.3841973923247342e+03 -1.9558174852452439e+02 1.5278285051447514e+02 0 0 0
299 1 2 -2.3842338906471987e+03 -1.9774954326748366e+02 1.5497217999589034e+02 0 0 0
298 1 2 -2.3838823687133181e+03 -1.9775288253960969e+02 1.5405323671742005e+02 0 0 0
310 1 2 -2.3849747985804875e+03 -1.9765224892421480e+02 1.5281264436211413e+02 0 0 0
297 1 2 -2.3848578223135091e+03 -1.9764003724084313e+02 1.5400329876278340e+02 0 0 0
315 1 2 -2.3837650188835751e+03 -1.9753247320214837e+02 1.5302306744313148e+02 0 0 0
339 1 2 -2.3852009176017891e+03 -1.9653095053160354e+02 1.5287776121992221e+02 0 0 0
295 1 2 -2.3851751756089834e+03 -1.9656707791383337e+02 1.5413086343338429e+02 0 0 0
282 1 2 -2.3852560798453364e+03 -1.9724340401900596e+02 1.5498138229302265e+02 0 0 0
294 1 2 -2.3850494355300207e+03 -1.9612722828071333e+02 1.5496887002374766e+02 0 0 0
293 1 2 -2.3848452714718478e+03 -1.9527832455609990e+02 1.5528659037114664e+02 0 0 0
296 1 2 -2.3844587837307299e+03 -1.9686385409610469e+02 1.5359426016409299e+02 0 0 0
1154 1 2 -2.3844822667478102e+03 -1.9571916497783008e+02 1.5375226222121796e+02 0 0 0
1151 1 2 -2.3840636744658573e+03 -1.9677602989400003e+02 1.5456648170065051e+02 0 0 0
1153 1 2 -2.3836694043402349e+03 -1.9609989505852445e+02 1.5348577050116117e+02 0 0 0
1149 1 2 -2.3839800206348732e+03 -1.9574294748409397e+02 1.5468127470823919e+02 0 0 0
279 1 2 -2.3831480276448315e+03 -1.9749514097372170e+02 1.5493326155275014e+02 0 0 0
1152 1 2 -2.3832807045521690e+03 -1.9686041427614137e+02 1.5390843515554607e+02 0 0 0
1148 1 2 -2.3830880009341795e+03 -1.9536257678070774e+02 1.5463877916429109e+02 0 0 0
1150 1 2 -2.3832856040088309e+03 -1.9638097825306602e+02 1.5492375944823877e+02 0 0 0
316 1 2 -2.3832067008531330e+03 -1.9682778295922947e+02 1.5278301682305428e+02 0 0 0
1976 1 2 -2.3827762023551722e+03 -1.9781685147077985e+02 1.5370650740995779e+02 0 0 0
1984 1 2 -2.3816796247147631e+03 -1.9773523751744207e+02 1.5326502366575281e+02 0 0 0
1985 1 2 -2.3807728152573591e+03 -1.9783322016994862e+02 1.5357734677231093e+02 0 0 0
1975 1 2 -2.3823744961808056e+03 -1.9703928320418063e+02 1.5340650550027962e+02 0 0 0
2200 1 2 -2.3828040173045083e+03 -1.9536120877018425e+02 1.5354137086294594e+02 0 0 0
2199 1 2 -2.3825496390111980e+03 -1.9613890408544876e+02 1.5403125196499278e+02 0 0 0
2198 1 2 -2.3823835225981124e+03 -1.9692905010402518e+02 1.5452241782795235e+02 0 0 0
2194 1 2 -2.3820142170996896e+03 -1.9535873278027751e+02 1.5436496419469529e+02 0 0 0
2030 1 2 -2.3812997799258710e+03 -1.9725869795486150e+02 1.5424156792324351e+02 0 0 0
2191 1 2 -2.3820489110207222e+03 -1.9612613768895153e+02 1.5305085622532499e+02 0 0 0
2193 1 2 -2.3817576735424686e+03 -1.9521754738610485e+02 1.5351089754254883e+02 0 0 0
2189 1 2 -2.3812041293413449e+03 -1.9681573682334897e+02 1.5292264319020487e+02 0 0 0
2192 1 2 -2.3814341335052973e+03 -1.9551012254457206e+02 1.5272918987854530e+02 0 0 0
2190 1 2 -2.3812614789088957e+03 -1.9620263614511677e+02 1.5364432432052405e+02 0 0 0
2197 1 2 -2.3816304853515412e+03 -1.9636244382690964e+02 1.5461640115604996e+02 0 0 0
2033 1 2 -2.3805395672580671e+03 -1.9648949931214989e+02 1.5460096820440543e+02 0 0 0
2061 1 2 -2.3808919059603968e+03 -1.9556931365759675e+02 1.5438124256149030e+02 0 0 0
2195 1 2 -2.3823452331683238e+03 -1.9563593357307417e+02 1.5524694738677204e+02 0 0 0
2031 1 2 -2.3814721976000442e+03 -1.9737919167737098e+02 1.5512246203190389e+02 0 0 0
2059 1 2 -2.3813204741196032e+03 -1.9565720580877169e+02 1.5539746407400048e+02 0 0 0
2029 1 2 -2.3804820001147336e+03 -1.9763277411797841e+02 1.5463818911445250e+02 0 0 0
1986 1 2 -2.3803829343432803e+03 -1.9739078292950327e+02 1.5282284852308359e+02 0 0 0
2239 1 2 -2.3792177961395514e+03 -1.9689832846132350e+02 1.5310792395144571e+02 0 0 0
1987 1 2 -2.3803278478671778e+03 -1.9676302859863924e+02 1.5359966356310582e+02 0 0 0
1988 1 2 -2.3801040461444773e+03 -1.9585977965803278e+02 1.5366852392123806e+02 0 0 0
2035 1 2 -2.3795677207387826e+03 -1.9692369675258936e+02 1.5437979241357792e+02 0 0 0
1989 1 2 -2.3796520847848446e+03 -1.9582247715285058e+02 1.5451707091729531e+02 0 0 0
1990 1 2 -2.3789955801876754e+03 -1.9600716195807814e+02 1.5386621200553185e+02 0 0 0
2240 1 2 -2.3794318234575167e+03 -1.9603596433100486e+02 1.5284522906949061e+02 0 0 0
2011 1 2 -2.3787059894630352e+03 -1.9553340087698527e+02 1.5489187665945252e+02 0 0 0
1991 1 2 -2.3786703801115459e+03 -1.9547710084180338e+02 1.5314782444945195e+02 0 0 0
2236 1 2 -2.3782618089741886e+03 -1.9647674058809940e+02 1.5460266309007574e+02 0 0 0
2430 1 2 -2.3780683236147852e+03 -1.9555138702529615e+02 1.5405355104455495e+02 0 0 0
2036 1 2 -2.3788797896191077e+03 -1.9724550127387326e+02 1.5489425858492098e+02 0 0 0
2060 1 2 -2.3803880227784034e+03 -1.9568987847374544e+02 1.5520473310377653e+02 0 0 0
2034 1 2 -2.3797955537602952e+03 -1.9664906431932900e+02 1.5521141026309442e+02 0 0 0
2238 1 2 -2.3789884517007054e+03 -1.9763777411240488e+02 1.5366822769045245e+02 0 0 0
2237 1 2 -2.3783479391960786e+03 -1.9690811060164319e+02 1.5374508258018162e+02 0 0 0
2040 1 2 -2.3797195051653212e+03 -1.9763812282344560e+02 1.5540775489864410e+02 0 0 0
2235 1 2 -2.3778634643543983e+03 -1.9693429158461657e+02 1.5533147438934793e+02 0 0 0
2017 1 2 -2.3767919609196556e+03 -1.9729805509070991e+02 1.5521552262960074e+02 0 0 0
2429 1 2 -2.3773680414833384e+03 -1.9604500523846690e+02 1.5354533442947007e+02 0 0 0
2016 1 2 -2.3773323628075095e+03 -1.9708192687109428e+02 1.5446046416218849e+02 0 0 0
2014 1 2 -2.3775086761399157e+03 -1.9551667394830503e+02 1.5527490804234614e+02 0 0 0
2015 1 2 -2.3771663490026422e+03 -1.9616821187720964e+02 1.5462784536384484e+02 0 0 0
2484 1 2 -2.3764772703516296e+03 -1.9526274146779224e+02 1.5518539789120362e+02 0 0 0
40 1 2 -2.3907536758761585e+03 -1.9385420211285415e+02 1.5482094394341652e+02 0 0 0
873 1 2 -2.3911520189284834e+03 -1.9250334051629923e+02 1.5508477613355672e+02 0 0 0
14 1 1 -2.3887987758201184e+03 -1.9330274398439150e+02 1.5292502688334218e+02 0 0 0
515 1 2 -2.3905215374294871e+03 -1.9499577290286643e+02 1.5387343134394709e+02 0 0 0
516 1 2 -2.3895828638009530e+03 -1.9480794443521322e+02 1.5341021441544387e+02 0 0 0
527 1 2 -2.3904863942871934e+03 -1.9484233304104643e+02 1.5532101167696553e+02 0 0 0
874 1 2 -2.3905092527644542e+03 -1.9286195534112343e+02 1.5440651323094824e+02 0 0 0
15 1 1 -2.3896159758714252e+03 -1.9374515270444795e+02 1.5304566033644195e+02 0 0 0
522 1 2 -2.3883966499505450e+03 -1.9480540376013658e+02 1.5379841864533185e+02 0 0 0
517 1 2 -2.3888631464984255e+03 -1.9461501191214751e+02 1.5278308870198083e+02 0 0 0
526 1 2 -2.3897816510670023e+03 -1.9468340760248250e+02 1.5470633867526345e+02 0 0 0
912 1 2 -2.3887438714814516e+03 -1.9477125706288706e+02 1.5486276808015253e+02 0 0 0
525 1 2 -2.3899651652546804e+03 -1.9392867163912351e+02 1.5410953526626582e+02 0 0 0
913 1 2 -2.3889373788276980e+03 -1.9390334810860824e+02 1.5519646923228080e+02 0 0 0
524 1 2 -2.3889758677099358e+03 -1.9395704806500436e+02 1.5409309200537601e+02 0 0 0
38 1 2 -2.3895122518988710e+03 -1.9318711311455442e+02 1.5470426407666599e+02 0 0 0