LAMMPS data file via write_data, version 16 Mar 2018, timestep = 0

4000 atoms
2 atom types
4012 bonds
2 bond types

-2.3925269860253925e+03 -2.3721703770913246e+03 xlo xhi
-2.0370969899652331e+02 -1.8327032758812993e+02 ylo yhi
1.4994766504552288e+02 1.7100184256827478e+02 zlo zhi

Masses

1 1
2 1

Atoms # bond

791 1 2 -2.3857353270816625e+03 -1.9874516696370262e+02 1.5239834271065038e+02 0 0 0
751 1 2 -2.3838574774659178e+03 -1.9890700740168342e+02 1.5180934403765821e+02 0 0 0
752 1 2 -2.3829187401341756e+03 -1.9863311077103208e+02 1.5180447667771901e+02 0 0 0
780 1 2 -2.3835483295582721e+03 -1.9989015042710608e+02 1.5230459887491224e+02 0 0 0
760 1 2 -2.3807065750560955e+03 -1.9959936464913679e+02 1.5255493009238492e+02 0 0 0
761 1 2 -2.3804350663765163e+03 -1.9871825561727468e+02 1.5227831045303799e+02 0 0 0
742 1 2 -2.3876389616817278e+03 -1.9654335629650288e+02 1.5231477885753040e+02 0 0 0
796 1 2 -2.3853921227784344e+03 -1.9803415523876365e+02 1.5159425851227556e+02 0 0 0
795 1 2 -2.3854948665797501e+03 -1.9718760410688859e+02 1.5198830742779575e+02 0 0 0
792 1 2 -2.3862939223900539e+03 -1.9804784719423682e+02 1.5227215574446552e+02 0 0 0
794 1 2 -2.3863704702234768e+03 -1.9674244370507617e+02 1.5190552613973554e+02 0 0 0
793 1 2 -2.3870199261409771e+03 -1.9735712574026266e+02 1.5226850977845166e+02 0 0 0
790 1 2 -2.3848728464500718e+03 -1.9839506311900629e+02 1.5248039391273460e+02 0 0 0
797 1 2 -2.3844423632731073e+03 -1.9786807514558902e+02 1.5150037956874760e+02 0 0 0
799 1 2 -2.3839454138911997e+03 -1.9721863974893901e+02 1.5082014779977411e+02 0 0 0
748 1 2 -2.3846323721579570e+03 -1.9638920612039698e+02 1.5218036224440417e+02 0 0 0
747 1 2 -2.3847914628398839e+03 -1.9667998962056521e+02 1.5129109903905803e+02 0 0 0
798 1 2 -2.3835009886279640e+03 -1.9792877922799815e+02 1.5121067407600424e+02 0 0 0
750 1 2 -2.3837870118304727e+03 -1.9808683609648048e+02 1.5239198847451351e+02 0 0 0
863 1 2 -2.3837692083749107e+03 -1.9711515552151815e+02 1.5181846108908093e+02 0 0 0
858 1 2 -2.3826396577904793e+03 -1.9762117592801411e+02 1.5169500094974430e+02 0 0 0
857 1 2 -2.3827827697667099e+03 -1.9722882813587631e+02 1.5085715141656209e+02 0 0 0
861 1 2 -2.3826552178175430e+03 -1.9652552239961375e+02 1.5189590235960208e+02 0 0 0
801 1 2 -2.3829673895100191e+03 -1.9617443007655524e+02 1.5085287501530706e+02 0 0 0
800 1 2 -2.3839743984922502e+03 -1.9625534992935724e+02 1.5080091121744650e+02 0 0 0
862 1 2 -2.3835392877752129e+03 -1.9617312819912854e+02 1.5178716912479055e+02 0 0 0
749 1 2 -2.3844955169901209e+03 -1.9734908169004188e+02 1.5252074589068161e+02 0 0 0
753 1 2 -2.3820182897680916e+03 -1.9848786706903775e+02 1.5196892920588081e+02 0 0 0
859 1 2 -2.3818567627037487e+03 -1.9725860196050766e+02 1.5206136517170580e+02 0 0 0
860 1 2 -2.3817352884388943e+03 -1.9634027153780940e+02 1.5183656852330867e+02 0 0 0
856 1 2 -2.3818393359313059e+03 -1.9682432564777002e+02 1.5088413030005125e+02 0 0 0
853 1 2 -2.3801958167749194e+03 -1.9762616465245722e+02 1.5192863530450762e+02 0 0 0
855 1 2 -2.3817678851601599e+03 -1.9772513956052629e+02 1.5115597107538727e+02 0 0 0
854 1 2 -2.3810213792010200e+03 -1.9796138369383027e+02 1.5164117536264976e+02 0 0 0
851 1 2 -2.3801229120856619e+03 -1.9634958980908044e+02 1.5113213236105548e+02 0 0 0
850 1 2 -2.3808795523504691e+03 -1.9681898008230323e+02 1.5140196501463987e+02 0 0 0
849 1 2 -2.3806371183100969e+03 -1.9627770881807382e+02 1.5216761339247518e+02 0 0 0
848 1 2 -2.3809151913794785e+03 -1.9712244409269886e+02 1.5251930008196970e+02 0 0 0
852 1 2 -2.3797451185386340e+03 -1.9677413087946894e+02 1.5182430081393457e+02 0 0 0
762 1 2 -2.3795414797493117e+03 -1.9858171866361775e+02 1.5243743294075946e+02 0 0 0
763 1 1 -2.3792209282209369e+03 -1.9761036948515039e+02 1.5247083869389658e+02 0 0 0
764 1 2 -2.3788373255387251e+03 -1.9674776667976590e+02 1.5245722913554923e+02 0 0 0
704 1 2 -2.3878802561873567e+03 -1.9427342549681404e+02 1.5181360933903622e+02 0 0 0
734 1 1 -2.3880891063280596e+03 -1.9534102491616167e+02 1.5220882383203889e+02 0 0 0
743 1 2 -2.3870342076540378e+03 -1.9587206711346471e+02 1.5181568245555655e+02 0 0 0
744 1 2 -2.3861993259196847e+03 -1.9547519209495943e+02 1.5208688170019795e+02 0 0 0
745 1 2 -2.3856227540649334e+03 -1.9601650457436600e+02 1.5153220929366677e+02 0 0 0
746 1 2 -2.3851331656879415e+03 -1.9596960862582014e+02 1.5073041524692633e+02 0 0 0
1022 1 2 -2.3851269581557144e+03 -1.9495187580135541e+02 1.5129378087826134e+02 0 0 0
1021 1 2 -2.3850457094834119e+03 -1.9519400571585373e+02 1.5219216965220349e+02 0 0 0
673 1 2 -2.3860892435750307e+03 -1.9435118876609241e+02 1.5188332419402278e+02 0 0 0
675 1 2 -2.3849634002279172e+03 -1.9413665028587494e+02 1.5236461820936788e+02 0 0 0
674 1 2 -2.3853055010853077e+03 -1.9382206715335656e+02 1.5149803551584591e+02 0 0 0
707 1 2 -2.3871405185434141e+03 -1.9356965611011384e+02 1.5224613899870062e+02 0 0 0
672 1 2 -2.3864147331479494e+03 -1.9362072222854451e+02 1.5143904887073111e+02 0 0 0
705 1 2 -2.3873064926568723e+03 -1.9462532603508413e+02 1.5250018148539769e+02 0 0 0
1024 1 2 -2.3842306725318545e+03 -1.9519489867060574e+02 1.5065361998567306e+02 0 0 0
1023 1 2 -2.3844321452640147e+03 -1.9562337673410474e+02 1.5149320328738315e+02 0 0 0
676 1 2 -2.3842192534282126e+03 -1.9453729312983148e+02 1.5202394113878913e+02 0 0 0
680 1 2 -2.3834916018394183e+03 -1.9435386717366421e+02 1.5061947391493661e+02 0 0 0
681 1 2 -2.3843644806533898e+03 -1.9412589544771612e+02 1.5095003421634769e+02 0 0 0
682 1 2 -2.3843372224537925e+03 -1.9356857092403820e+02 1.5016190599822298e+02 0 0 0
802 1 2 -2.3830917885694030e+03 -1.9531312201024235e+02 1.5033646759901953e+02 0 0 0
679 1 2 -2.3831341646090168e+03 -1.9356048036116033e+02 1.5023259208424722e+02 0 0 0
1025 1 2 -2.3834819535300580e+03 -1.9523429471308307e+02 1.5126050694383187e+02 0 0 0
803 1 2 -2.3825789396200498e+03 -1.9455905507715789e+02 1.5017709973082330e+02 0 0 0
1026 1 2 -2.3831956179063859e+03 -1.9502476773650613e+02 1.5216593207034370e+02 0 0 0
807 1 2 -2.3824775998520872e+03 -1.9544870817485537e+02 1.5140911856002160e+02 0 0 0
806 1 2 -2.3825929013670971e+03 -1.9450182687364830e+02 1.5123211707524007e+02 0 0 0
870 1 2 -2.3827018749093427e+03 -1.9393947092955401e+02 1.5229374637071001e+02 0 0 0
677 1 2 -2.3835274513919389e+03 -1.9407301998073675e+02 1.5159096723140075e+02 0 0 0
1019 1 2 -2.3841008863131929e+03 -1.9557994235007448e+02 1.5248566349141672e+02 0 0 0
808 1 2 -2.3820240573073884e+03 -1.9565789262898997e+02 1.5059974563215442e+02 0 0 0
809 1 2 -2.3815456100098909e+03 -1.9486411454908026e+02 1.5041578168943840e+02 0 0 0
868 1 2 -2.3820078191341636e+03 -1.9473454762552902e+02 1.5217017494323079e+02 0 0 0
804 1 1 -2.3818734539574571e+03 -1.9388054747722288e+02 1.4994977042979204e+02 0 0 0
805 1 2 -2.3818384414108182e+03 -1.9401214605368386e+02 1.5089718839400265e+02 0 0 0
869 1 2 -2.3817920622093579e+03 -1.9387325840929270e+02 1.5201927080298526e+02 0 0 0
810 1 2 -2.3813683554873674e+03 -1.9486671685411216e+02 1.5131271861354168e+02 0 0 0
837 1 2 -2.3811070863778491e+03 -1.9532525270524442e+02 1.5219697124576825e+02 0 0 0
812 1 2 -2.3803569163573416e+03 -1.9521179765325357e+02 1.5065234449629367e+02 0 0 0
811 1 2 -2.3810050068414271e+03 -1.9571915961161648e+02 1.5113074163616145e+02 0 0 0
835 1 2 -2.3802538526230915e+03 -1.9450998519520056e+02 1.5173175096811860e+02 0 0 0
834 1 2 -2.3799533586907182e+03 -1.9543065377448912e+02 1.5181288684535446e+02 0 0 0
813 1 2 -2.3806018570984243e+03 -1.9424511060848380e+02 1.5055993153361561e+02 0 0 0
968 1 2 -2.3799131115132836e+03 -1.9363080748276323e+02 1.5120698714530130e+02 0 0 0
969 1 2 -2.3808810333682054e+03 -1.9362941048884406e+02 1.5137341651128253e+02 0 0 0
965 1 2 -2.3803166632062348e+03 -1.9351277211390590e+02 1.5227265048153541e+02 0 0 0
867 1 2 -2.3822336999566610e+03 -1.9558851327106424e+02 1.5246018414769816e+02 0 0 0
836 1 2 -2.3809093677690685e+03 -1.9442203546196285e+02 1.5243278124790132e+02 0 0 0
832 1 2 -2.3787367299217090e+03 -1.9545938889340323e+02 1.5197613452314451e+02 0 0 0
823 1 2 -2.3774535812124318e+03 -1.9450076834214991e+02 1.5230047285411302e+02 0 0 0
966 1 2 -2.3793549287210367e+03 -1.9363640406707199e+02 1.5222008385355790e+02 0 0 0
820 1 2 -2.3779668854382462e+03 -1.9360899515585709e+02 1.5181212619650159e+02 0 0 0
833 1 2 -2.3794527385113238e+03 -1.9492896803988290e+02 1.5247447606876597e+02 0 0 0
703 1 2 -2.3881083481973196e+03 -1.9333109377129415e+02 1.5184107147251561e+02 0 0 0
669 1 2 -2.3873456980899018e+03 -1.9197292432704415e+02 1.5214126137738256e+02 0 0 0
670 1 2 -2.3866516543217394e+03 -1.9262059246980863e+02 1.5192106650535354e+02 0 0 0
671 1 2 -2.3859060361346610e+03 -1.9288952776393987e+02 1.5135714236420907e+02 0 0 0
1414 1 2 -2.3850643496111356e+03 -1.9281960580905252e+02 1.5223681587724701e+02 0 0 0
689 1 2 -2.3851943376906320e+03 -1.9205380195873917e+02 1.5133293626765317e+02 0 0 0
691 1 2 -2.3865096946960839e+03 -1.9143217614948173e+02 1.5177411404603490e+02 0 0 0
690 1 2 -2.3857573258216830e+03 -1.9191752737135968e+02 1.5205812169061105e+02 0 0 0
903 1 2 -2.3853492395439289e+03 -1.9101477582363080e+02 1.5199607538816775e+02 0 0 0
904 1 2 -2.3855390182575188e+03 -1.9098990348767148e+02 1.5108995805305403e+02 0 0 0
1415 1 2 -2.3858781782386945e+03 -1.9338350852905376e+02 1.5236592405221157e+02 0 0 0
683 1 2 -2.3847488748939522e+03 -1.9301853224454592e+02 1.5084722681978286e+02 0 0 0
1045 1 2 -2.3842878709461993e+03 -1.9346415572085738e+02 1.5195761496796484e+02 0 0 0
1046 1 2 -2.3842731156403738e+03 -1.9251753238093551e+02 1.5164646098187973e+02 0 0 0
688 1 2 -2.3847322127102761e+03 -1.9172976311068831e+02 1.5056160456672760e+02 0 0 0
684 1 2 -2.3840436400016315e+03 -1.9259192045553198e+02 1.5034180498935257e+02 0 0 0
687 1 2 -2.3843009204549398e+03 -1.9137114373535346e+02 1.5144598389590055e+02 0 0 0
678 1 2 -2.3836097931751374e+03 -1.9330518537533359e+02 1.5102108194913313e+02 0 0 0
1049 1 2 -2.3832333946752578e+03 -1.9306156818053969e+02 1.5197339459382871e+02 0 0 0
1050 1 2 -2.3825904276609886e+03 -1.9341636061836317e+02 1.5126417862510073e+02 0 0 0
1047 1 2 -2.3836756566222693e+03 -1.9202126239968749e+02 1.5211343491825713e+02 0 0 0
685 1 2 -2.3831578629064365e+03 -1.9211247948441172e+02 1.5022921835386629e+02 0 0 0
1048 1 2 -2.3831573840557885e+03 -1.9234728051109110e+02 1.5133695343246950e+02 0 0 0
686 1 2 -2.3835946711219044e+03 -1.9151312875449625e+02 1.5087576616062995e+02 0 0 0
911 1 2 -2.3826185724827883e+03 -1.9116733511024586e+02 1.5084843904707557e+02 0 0 0
916 1 2 -2.3828475187232261e+03 -1.9142159346419751e+02 1.5187537705380538e+02 0 0 0
1413 1 2 -2.3847355499448872e+03 -1.9191499779761111e+02 1.5234508953242752e+02 0 0 0
814 1 2 -2.3810129576435515e+03 -1.9341381410194086e+02 1.5033919309583464e+02 0 0 0
1052 1 2 -2.3815611039263986e+03 -1.9292143506661466e+02 1.5105111934925412e+02 0 0 0
875 1 2 -2.3822023878031978e+03 -1.9256557095882482e+02 1.5192363290883557e+02 0 0 0
876 1 2 -2.3821328764981554e+03 -1.9201502861713777e+02 1.5113717907708400e+02 0 0 0
1051 1 2 -2.3822438851512102e+03 -1.9299603872675127e+02 1.5047187041927194e+02 0 0 0
973 1 2 -2.3812919719562719e+03 -1.9295151151608678e+02 1.5220625988439173e+02 0 0 0
971 1 2 -2.3811973338336602e+03 -1.9199802603629979e+02 1.5177603019387195e+02 0 0 0
815 1 2 -2.3802039186947895e+03 -1.9288921033280883e+02 1.5044841217974607e+02 0 0 0
970 1 2 -2.3805280217699674e+03 -1.9273206214851379e+02 1.5150756909335067e+02 0 0 0
1053 1 2 -2.3811863600660135e+03 -1.9243301767568775e+02 1.5033444297806329e+02 0 0 0
1054 1 2 -2.3806373646481475e+03 -1.9184860994066287e+02 1.5083249533380101e+02 0 0 0
1055 1 2 -2.3798179828262814e+03 -1.9134480821540424e+02 1.5077737498352573e+02 0 0 0
880 1 2 -2.3801744714220931e+03 -1.9158781754506813e+02 1.5171688088552665e+02 0 0 0
877 1 2 -2.3815535868192260e+03 -1.9139955067412620e+02 1.5072511689588072e+02 0 0 0
878 1 2 -2.3817160665382899e+03 -1.9102613351662799e+02 1.5152597671511091e+02 0 0 0
879 1 2 -2.3807494012321322e+03 -1.9095956634381761e+02 1.5142841544782863e+02 0 0 0
917 1 2 -2.3820988629015760e+03 -1.9141526899203865e+02 1.5248281262165446e+02 0 0 0
881 1 2 -2.3802792397312392e+03 -1.9216807991579202e+02 1.5243165702137281e+02 0 0 0
923 1 2 -2.3810465379671832e+03 -1.9108878880530864e+02 1.5251887355348723e+02 0 0 0
967 1 2 -2.3790431881938034e+03 -1.9336777120252211e+02 1.5139707466755314e+02 0 0 0
817 1 2 -2.3794748357346048e+03 -1.9256473388620489e+02 1.5190843255096837e+02 0 0 0
816 1 2 -2.3795873405995094e+03 -1.9237677276962475e+02 1.5098147439641349e+02 0 0 0
818 1 2 -2.3785125956058173e+03 -1.9254156584970755e+02 1.5194335943877479e+02 0 0 0
1157 1 2 -2.3791539261416974e+03 -1.9171569763108059e+02 1.5239400050672901e+02 0 0 0
1166 1 2 -2.3776752901122122e+03 -1.9249763013120929e+02 1.5257603888638334e+02 0 0 0
821 1 2 -2.3771118543694101e+03 -1.9339827269419138e+02 1.5217574753216795e+02 0 0 0
664 1 2 -2.3854097223113963e+03 -1.8936939862285391e+02 1.5135002605002020e+02 0 0 0
665 1 2 -2.3858131782514906e+03 -1.8936646265019473e+02 1.5221631440215529e+02 0 0 0
692 1 2 -2.3863821139501392e+03 -1.9057625428569432e+02 1.5220262614256515e+02 0 0 0
666 1 2 -2.3867664371355904e+03 -1.8952450942581063e+02 1.5234916976215985e+02 0 0 0
906 1 2 -2.3844114542246521e+03 -1.8991382384108658e+02 1.5170616787894073e+02 0 0 0
905 1 2 -2.3848428493746123e+03 -1.9032217791586294e+02 1.5096654982948812e+02 0 0 0
907 1 2 -2.3837538919056728e+03 -1.8919011208361383e+02 1.5183385688080480e+02 0 0 0
915 1 2 -2.3835459028002551e+03 -1.9081913382684809e+02 1.5202064751298420e+02 0 0 0
912 1 2 -2.3825497113236302e+03 -1.9042936393900058e+02 1.5151605653059158e+02 0 0 0
913 1 2 -2.3829741828535289e+03 -1.8992408852645303e+02 1.5222399096398476e+02 0 0 0
909 1 2 -2.3835621615025489e+03 -1.9040175713004999e+02 1.5100213935543613e+02 0 0 0
910 1 2 -2.3831732918088546e+03 -1.9079392253633182e+02 1.5018733944383820e+02 0 0 0
663 1 2 -2.3848035474962612e+03 -1.8899019989703953e+02 1.5200373881995708e+02 0 0 0
908 1 1 -2.3831696072517379e+03 -1.8958317278066133e+02 1.5114796770965791e+02 0 0 0
902 1 2 -2.3845209478921033e+03 -1.9091723739067496e+02 1.5241932600544669e+02 0 0 0
1065 1 2 -2.3827982551939726e+03 -1.8870797675994774e+02 1.5215751927384949e+02 0 0 0
919 1 2 -2.3821006669157027e+03 -1.8951450905415427e+02 1.5197878648630245e+02 0 0 0
920 1 2 -2.3813574754986280e+03 -1.9002605843099528e+02 1.5170875260795199e+02 0 0 0
1057 1 2 -2.3801542134599918e+03 -1.9023643420679196e+02 1.5197479760083556e+02 0 0 0
1062 1 2 -2.3810733716667951e+03 -1.8893910026375042e+02 1.5225632425834175e+02 0 0 0
918 1 2 -2.3820483882919616e+03 -1.9040071356192374e+02 1.5242578532553387e+02 0 0 0
1058 1 2 -2.3800683328690970e+03 -1.8943123266030605e+02 1.5250986598711523e+02 0 0 0
1056 1 2 -2.3794221836333004e+03 -1.9066234232459792e+02 1.5144600472529950e+02 0 0 0
1162 1 2 -2.3787665743261682e+03 -1.9064693868422631e+02 1.5233272380627031e+02 0 0 0
662 1 2 -2.3853163438875868e+03 -1.8822934963224887e+02 1.5234358871663903e+02 0 0 0
661 1 2 -2.3843930073921356e+03 -1.8794287030077797e+02 1.5229423338464321e+02 0 0 0
1723 1 2 -2.3853282054789574e+03 -2.0172593660309821e+02 1.5449806334320311e+02 0 0 0
1724 1 2 -2.3844233906618460e+03 -2.0194235558215834e+02 1.5464356246976851e+02 0 0 0
1725 1 2 -2.3837454393791159e+03 -2.0127031421192970e+02 1.5448157177033519e+02 0 0 0
1727 1 2 -2.3826431016631723e+03 -2.0117894643896338e+02 1.5458792498175197e+02 0 0 0
1729 1 2 -2.3815770684933736e+03 -2.0127814869134963e+02 1.5476736167112890e+02 0 0 0
1728 1 2 -2.3822092123315701e+03 -2.0198303733860703e+02 1.5488348328300376e+02 0 0 0
2041 1 2 -2.3879261370636304e+03 -2.0088249865778479e+02 1.5520327962312973e+02 0 0 0
2040 1 2 -2.3880825481802644e+03 -2.0002434722109061e+02 1.5483903266597855e+02 0 0 0
2048 1 2 -2.3881600097964661e+03 -1.9897416670593185e+02 1.5473795580337415e+02 0 0 0
2039 1 2 -2.3889288740876373e+03 -1.9956314938195379e+02 1.5515333531129087e+02 0 0 0
1719 1 2 -2.3863272086789311e+03 -2.0093305007720849e+02 1.5473734649921303e+02 0 0 0
2006 1 2 -2.3872290929167416e+03 -1.9952811882077515e+02 1.5453081195487209e+02 0 0 0
2005 1 2 -2.3873840349085622e+03 -1.9896864112954546e+02 1.5376277372564397e+02 0 0 0
1991 1 2 -2.3863712561096454e+03 -2.0003670172864176e+02 1.5413526290704900e+02 0 0 0
1720 1 2 -2.3854642443813700e+03 -2.0057645581427644e+02 1.5442433108085223e+02 0 0 0
1990 1 2 -2.3860058167408433e+03 -1.9989445786580842e+02 1.5496818442566541e+02 0 0 0
1721 1 2 -2.3855615842878588e+03 -2.0063967680473300e+02 1.5352633514631231e+02 0 0 0
1993 1 2 -2.3859340740715434e+03 -1.9956335938795777e+02 1.5325962389051222e+02 0 0 0
1994 1 2 -2.3853581374214800e+03 -1.9958052194163164e+02 1.5406908120694146e+02 0 0 0
1992 1 2 -2.3863516453333923e+03 -1.9909917648071178e+02 1.5399952598225710e+02 0 0 0
2004 1 2 -2.3870505423335976e+03 -1.9869010944904909e+02 1.5290679814290630e+02 0 0 0
2002 1 2 -2.3854077374800322e+03 -1.9862094647646822e+02 1.5351570091030234e+02 0 0 0
2007 1 2 -2.3870450021653528e+03 -2.0021934805120517e+02 1.5519616039348043e+02 0 0 0
1804 1 2 -2.3865991247495272e+03 -1.9899744652111869e+02 1.5510991771928062e+02 0 0 0
1802 1 2 -2.3852727505285575e+03 -1.9911001490974999e+02 1.5496302252288052e+02 0 0 0
2000 1 2 -2.3845520642911024e+03 -2.0023164161969160e+02 1.5317310607467653e+02 0 0 0
1722 1 2 -2.3848031847082925e+03 -2.0109404421319314e+02 1.5384209639885776e+02 0 0 0
1999 1 2 -2.3844062894411795e+03 -2.0008811714051672e+02 1.5411105736476571e+02 0 0 0
2001 1 2 -2.3848344367835634e+03 -1.9929131824281180e+02 1.5315984078450637e+02 0 0 0
1995 1 2 -2.3845597136356382e+03 -1.9901335949088656e+02 1.5416831157782269e+02 0 0 0
781 1 2 -2.3838715965564088e+03 -1.9922948463905669e+02 1.5286908378279648e+02 0 0 0
778 1 2 -2.3829352996368420e+03 -1.9881910871927872e+02 1.5295137310435265e+02 0 0 0
1726 1 2 -2.3831367432228603e+03 -2.0056830545642882e+02 1.5408032883341002e+02 0 0 0
779 1 2 -2.3828520623393165e+03 -1.9979228628037239e+02 1.5292644711888002e+02 0 0 0
1747 1 2 -2.3838296104998985e+03 -1.9949148924956651e+02 1.5480478586408009e+02 0 0 0
1746 1 2 -2.3837240748241675e+03 -2.0038206764158920e+02 1.5505199937219825e+02 0 0 0
1998 1 2 -2.3836471362484199e+03 -1.9951835867449734e+02 1.5379798403602001e+02 0 0 0
1748 1 2 -2.3828939695354920e+03 -1.9955191158133860e+02 1.5471568228688452e+02 0 0 0
1997 1 2 -2.3830976653438279e+03 -1.9873693945756966e+02 1.5403949771198540e+02 0 0 0
1987 1 2 -2.3846954641748066e+03 -2.0096745125504972e+02 1.5496180360599993e+02 0 0 0
1988 1 2 -2.3846979247666764e+03 -2.0002223152207210e+02 1.5517519592531093e+02 0 0 0
754 1 1 -2.3818234096230499e+03 -1.9924613657560974e+02 1.5263954799358342e+02 0 0 0
1494 1 2 -2.3819993850283713e+03 -2.0017123887308003e+02 1.5440062035941318e+02 0 0 0
1488 1 2 -2.3816022640430160e+03 -1.9952147712578258e+02 1.5517588555547346e+02 0 0 0
1495 1 2 -2.3822968155905824e+03 -1.9947531943195801e+02 1.5379812699895234e+02 0 0 0
1493 1 1 -2.3820575206798812e+03 -2.0072363222097457e+02 1.5366595351285122e+02 0 0 0
1489 1 2 -2.3809959768603653e+03 -2.0020006526770376e+02 1.5483752746048555e+02 0 0 0
757 1 2 -2.3812663512460044e+03 -1.9939817817369845e+02 1.5417592144919013e+02 0 0 0
1492 1 2 -2.3815099140836701e+03 -2.0001602787274780e+02 1.5328232525598608e+02 0 0 0
1490 1 2 -2.3804472295640417e+03 -2.0094186703437907e+02 1.5468719419561512e+02 0 0 0
759 1 2 -2.3799962258600658e+03 -1.9926951711243061e+02 1.5321217086041744e+02 0 0 0
758 1 2 -2.3804033913393414e+03 -1.9981097024073401e+02 1.5398847977207637e+02 0 0 0
1491 1 2 -2.3810463733377642e+03 -2.0073078522930919e+02 1.5390024057432336e+02 0 0 0
1482 1 2 -2.3804216343002167e+03 -1.9935728633572666e+02 1.5504830941463564e+02 0 0 0
1496 1 2 -2.3820884384885071e+03 -1.9880355459079732e+02 1.5438948480973929e+02 0 0 0
756 1 2 -2.3810850447363005e+03 -1.9893069095029105e+02 1.5335118799182519e+02 0 0 0
2672 1 2 -2.3802886129310932e+03 -1.9864702140188157e+02 1.5423865878418025e+02 0 0 0
2689 1 2 -2.3784291878423774e+03 -1.9911545297095051e+02 1.5362280706090212e+02 0 0 0
2668 1 2 -2.3786865190896851e+03 -1.9976522883289232e+02 1.5460843797235512e+02 0 0 0
2669 1 2 -2.3795958356122524e+03 -1.9993534149668625e+02 1.5471611922841191e+02 0 0 0
2670 1 2 -2.3793430762574280e+03 -1.9985754579449198e+02 1.5376602214402789e+02 0 0 0
2667 1 2 -2.3784998058793603e+03 -1.9889336423668459e+02 1.5483080678096391e+02 0 0 0
2671 1 2 -2.3794236009446599e+03 -1.9902883232023851e+02 1.5428797496920913e+02 0 0 0
2690 1 2 -2.3776215115742789e+03 -1.9928787719796401e+02 1.5410765963361973e+02 0 0 0
2691 1 2 -2.3773767574770618e+03 -1.9883668757029756e+02 1.5489947038936305e+02 0 0 0
1812 1 2 -2.3901977204105556e+03 -1.9690437488269157e+02 1.5501596729973451e+02 0 0 0
740 1 2 -2.3879051350236273e+03 -1.9753451053649570e+02 1.5277315550961868e+02 0 0 0
2049 1 2 -2.3878894658009863e+03 -1.9816090753634842e+02 1.5436822070425026e+02 0 0 0
1810 1 2 -2.3893132489505861e+03 -1.9706308130925638e+02 1.5450821588798382e+02 0 0 0
1809 1 2 -2.3885546761974206e+03 -1.9728142737166999e+02 1.5393854203554338e+02 0 0 0
2047 1 2 -2.3889802204960015e+03 -1.9834354941495363e+02 1.5474941281447099e+02 0 0 0
731 1 2 -2.3893357594646745e+03 -1.9654681969043503e+02 1.5340173424159084e+02 0 0 0
1808 1 2 -2.3876804207091022e+03 -1.9705008216638302e+02 1.5425857177338284e+02 0 0 0
732 1 2 -2.3885971376110842e+03 -1.9657439830112719e+02 1.5282674675445125e+02 0 0 0
729 1 2 -2.3880563393915263e+03 -1.9617820602232607e+02 1.5371175683993812e+02 0 0 0
1811 1 2 -2.3899464964610547e+03 -1.9634648922496868e+02 1.5429659035700317e+02 0 0 0
2050 1 2 -2.3883387526762331e+03 -1.9752585143024436e+02 1.5496549570610716e+02 0 0 0
2054 1 2 -2.3892813458623150e+03 -1.9621171188169063e+02 1.5519061288813685e+02 0 0 0
741 1 2 -2.3874365092653748e+03 -1.9680164288322246e+02 1.5317667842146963e+02 0 0 0
739 1 2 -2.3873265946539118e+03 -1.9781860034013593e+02 1.5351007866529199e+02 0 0 0
1807 1 2 -2.3873080015936725e+03 -1.9748298644889061e+02 1.5493785711536808e+02 0 0 0
789 1 2 -2.3854078856967271e+03 -1.9776201387548221e+02 1.5288418648078439e+02 0 0 0
737 1 2 -2.3867421822205665e+03 -1.9646306007834687e+02 1.5445572965882468e+02 0 0 0
1801 1 2 -2.3858066965437797e+03 -1.9841523385107766e+02 1.5453482382414015e+02 0 0 0
2003 1 2 -2.3863099181349517e+03 -1.9827857225071673e+02 1.5335552105606448e+02 0 0 0
1806 1 2 -2.3868556131472856e+03 -1.9821705987602076e+02 1.5447467667095535e+02 0 0 0
1800 1 2 -2.3861119974479743e+03 -1.9744204961808600e+02 1.5469082393837164e+02 0 0 0
788 1 2 -2.3856963854353130e+03 -1.9753634740178686e+02 1.5374667177393297e+02 0 0 0
997 1 2 -2.3849804861507182e+03 -1.9757048283042175e+02 1.5464320638522454e+02 0 0 0
738 1 2 -2.3867128535799625e+03 -1.9720797054023112e+02 1.5386003287646705e+02 0 0 0
1787 1 2 -2.3854022390619598e+03 -1.9665590706760284e+02 1.5434924171994152e+02 0 0 0
1789 1 2 -2.3862124653586416e+03 -1.9712240964639128e+02 1.5291820194754362e+02 0 0 0
787 1 2 -2.3851480670984611e+03 -1.9686872199000797e+02 1.5330932028466455e+02 0 0 0
1788 1 2 -2.3860282548687874e+03 -1.9649972958636599e+02 1.5366734289016563e+02 0 0 0
1790 1 2 -2.3865967366716627e+03 -1.9627221513141302e+02 1.5280662823794248e+02 0 0 0
1791 1 2 -2.3856139447479213e+03 -1.9614829818867750e+02 1.5265900909362193e+02 0 0 0
1786 1 2 -2.3858535267190900e+03 -1.9639370991825251e+02 1.5511638307468627e+02 0 0 0
864 1 2 -2.3832998593582229e+03 -1.9707098166239322e+02 1.5267714910538839e+02 0 0 0
782 1 2 -2.3840582889052939e+03 -1.9841755450141719e+02 1.5336157558661210e+02 0 0 0
783 1 2 -2.3846888333111610e+03 -1.9789810876093983e+02 1.5368442617490345e+02 0 0 0
996 1 2 -2.3840403330961071e+03 -1.9760292827874522e+02 1.5502243474165556e+02 0 0 0
785 1 2 -2.3843267314917557e+03 -1.9680824610876732e+02 1.5423142038534758e+02 0 0 0
777 1 2 -2.3826832889829748e+03 -1.9795434813716261e+02 1.5268777874875715e+02 0 0 0
784 1 2 -2.3839901247074895e+03 -1.9732982473043364e+02 1.5358016014315513e+02 0 0 0
1996 1 2 -2.3839364388750919e+03 -1.9837099908884480e+02 1.5433268141117549e+02 0 0 0
776 1 2 -2.3830908230985192e+03 -1.9781082284392812e+02 1.5347798083836145e+02 0 0 0
995 1 2 -2.3832193992949688e+03 -1.9756045860178921e+02 1.5454294290075887e+02 0 0 0
994 1 2 -2.3825841906147389e+03 -1.9696202549210062e+02 1.5483825389877012e+02 0 0 0
844 1 2 -2.3829579558015957e+03 -1.9670396949496833e+02 1.5368720139424400e+02 0 0 0
845 1 2 -2.3823649889147455e+03 -1.9663703296548610e+02 1.5288714687344526e+02 0 0 0
865 1 2 -2.3838757558778120e+03 -1.9644801378948264e+02 1.5302204578057260e+02 0 0 0
1035 1 2 -2.3835045478126167e+03 -1.9644148806480888e+02 1.5485000265994876e+02 0 0 0
1797 1 2 -2.3846471056537093e+03 -1.9615228560464945e+02 1.5503482601710922e+02 0 0 0
786 1 2 -2.3846647019915317e+03 -1.9609358978669687e+02 1.5357244158165551e+02 0 0 0
1000 1 2 -2.3831733184952950e+03 -1.9855211536020425e+02 1.5500380344993727e+02 0 0 0
755 1 2 -2.3819683504251952e+03 -1.9853734950486120e+02 1.5329306246959882e+02 0 0 0
846 1 2 -2.3818141350038786e+03 -1.9737108935619372e+02 1.5314096466499134e+02 0 0 0
775 1 2 -2.3823112589785487e+03 -1.9776732907434820e+02 1.5398212319856322e+02 0 0 0
774 1 2 -2.3822206966303715e+03 -1.9794510696171372e+02 1.5499286545130528e+02 0 0 0
773 1 2 -2.3814805998613183e+03 -1.9745004232607053e+02 1.5460117354006593e+02 0 0 0
843 1 2 -2.3820573856333403e+03 -1.9670221506944745e+02 1.5396364684489208e+02 0 0 0
992 1 2 -2.3815579865862551e+03 -1.9640349820691725e+02 1.5496621875099936e+02 0 0 0
847 1 2 -2.3812458220754620e+03 -1.9807500496750563e+02 1.5272823692901821e+02 0 0 0
2686 1 2 -2.3802562780674998e+03 -1.9779909664154729e+02 1.5311573918433180e+02 0 0 0
2685 1 2 -2.3799430412684255e+03 -1.9697852863448443e+02 1.5286446186608055e+02 0 0 0
1497 1 2 -2.3812861769041374e+03 -1.9851435747959661e+02 1.5481320854097152e+02 0 0 0
772 1 2 -2.3811382121087968e+03 -1.9798145796663866e+02 1.5382187861499207e+02 0 0 0
771 1 2 -2.3809514408223085e+03 -1.9703065729263452e+02 1.5375552559460107e+02 0 0 0
1498 1 2 -2.3806319287476344e+03 -1.9787876426641009e+02 1.5512143206546457e+02 0 0 0
2673 1 2 -2.3801493001228869e+03 -1.9773594928884162e+02 1.5417193164625007e+02 0 0 0
2677 1 2 -2.3805205710493192e+03 -1.9683713726691707e+02 1.5469041385860061e+02 0 0 0
2678 1 2 -2.3799354476646258e+03 -1.9658123889624775e+02 1.5394905688517272e+02 0 0 0
840 1 2 -2.3814111082842455e+03 -1.9612521096044330e+02 1.5290094232140549e+02 0 0 0
770 1 2 -2.3812035318541698e+03 -1.9614783870590981e+02 1.5398713487503247e+02 0 0 0
839 1 2 -2.3805281468388480e+03 -1.9612384578710615e+02 1.5326683938743088e+02 0 0 0
2664 1 2 -2.3796592301512123e+03 -1.9840831682612668e+02 1.5505810478212928e+02 0 0 0
2687 1 2 -2.3795300380680992e+03 -1.9837948888196144e+02 1.5344810610222109e+02 0 0 0
2688 1 2 -2.3785880667320766e+03 -1.9834251904481275e+02 1.5316470400814870e+02 0 0 0
2684 1 2 -2.3793741942699762e+03 -1.9733596257925302e+02 1.5356612670687667e+02 0 0 0
2662 1 2 -2.3789015402391956e+03 -1.9797867150669794e+02 1.5424272125127217e+02 0 0 0
2674 1 2 -2.3796508266305436e+03 -1.9735314964923333e+02 1.5482678149770948e+02 0 0 0
2663 1 2 -2.3788704567835771e+03 -1.9789573771061299e+02 1.5518971731072205e+02 0 0 0
2679 1 2 -2.3790162664026716e+03 -1.9667744284112985e+02 1.5432167772853927e+02 0 0 0
765 1 2 -2.3790530919049402e+03 -1.9634911754288973e+02 1.5332120805839770e+02 0 0 0
2680 1 2 -2.3781088543660148e+03 -1.9710161611699496e+02 1.5448241425244663e+02 0 0 0
2683 1 2 -2.3784590291700624e+03 -1.9728819540221556e+02 1.5337760025167537e+02 0 0 0
2682 1 2 -2.3777849995975507e+03 -1.9670934478120583e+02 1.5299963271368068e+02 0 0 0
2661 1 1 -2.3779592052740509e+03 -1.9826728520792912e+02 1.5425013675725179e+02 0 0 0
2681 1 2 -2.3781257376315680e+03 -1.9642726017837126e+02 1.5383974520348895e+02 0 0 0
2659 1 1 -2.3774605313365182e+03 -1.9747610306547068e+02 1.5358162684170753e+02 0 0 0
2713 1 1 -2.3760645556480640e+03 -1.9694448125053179e+02 1.5334672190826640e+02 0 0 0
2660 1 1 -2.3770506926360631e+03 -1.9829778417116282e+02 1.5392422481652721e+02 0 0 0
2655 1 1 -2.3771443017205852e+03 -1.9755074848075080e+02 1.5472271207862943e+02 0 0 0
2653 1 1 -2.3757347202533360e+03 -1.9812143474155872e+02 1.5442569670567480e+02 0 0 0
2654 1 1 -2.3763125112432440e+03 -1.9737436103741749e+02 1.5433786180252346e+02 0 0 0
2658 1 1 -2.3770392391038672e+03 -1.9670053646839224e+02 1.5383757248374005e+02 0 0 0
2718 1 1 -2.3762104355699307e+03 -1.9625387759690011e+02 1.5434836824619862e+02 0 0 0
2657 1 1 -2.3771616782390183e+03 -1.9649355329032855e+02 1.5478017197306428e+02 0 0 0
2719 1 1 -2.3756572027697389e+03 -1.9666143428784605e+02 1.5499726377997246e+02 0 0 0
2712 1 1 -2.3753651399226987e+03 -1.9692807224962417e+02 1.5404843883578380e+02 0 0 0
2720 1 1 -2.3747397038826211e+03 -1.9688699852797146e+02 1.5514828977502435e+02 0 0 0
2711 1 1 -2.3749222860138671e+03 -1.9618184930253602e+02 1.5445267483897993e+02 0 0 0
2652 1 1 -2.3763729775865645e+03 -1.9829227739171358e+02 1.5513330094073967e+02 0 0 0
722 1 2 -2.3903087840560188e+03 -1.9503868046640997e+02 1.5407499515970832e+02 0 0 0
435 1 2 -2.3905435060672648e+03 -1.9558461299183321e+02 1.5501308887631470e+02 0 0 0
730 1 2 -2.3888949250115134e+03 -1.9595232142052902e+02 1.5407241174270897e+02 0 0 0
721 1 2 -2.3895556937790825e+03 -1.9538088889915133e+02 1.5356998401944509e+02 0 0 0
725 1 2 -2.3896458473209477e+03 -1.9406017955102556e+02 1.5337649469257582e+02 0 0 0
724 1 2 -2.3896576876474937e+03 -1.9362092983889696e+02 1.5425557376844080e+02 0 0 0
723 1 2 -2.3899586459692791e+03 -1.9440897242348777e+02 1.5464292857573875e+02 0 0 0
735 1 2 -2.3874519472610677e+03 -1.9569015718252018e+02 1.5288839796049172e+02 0 0 0
726 1 2 -2.3889910582059615e+03 -1.9458522852516052e+02 1.5293220468328997e+02 0 0 0
2060 1 2 -2.3876608266454145e+03 -1.9588982204879960e+02 1.5460673848183436e+02 0 0 0