LAMMPS data file via write_data, version 16 Mar 2018, timestep = 0

4000 atoms
2 atom types
4012 bonds
2 bond types

-2.3929481585005792e+03 -2.3732130894049378e+03 xlo xhi
-2.0398461378122124e+02 -1.8446242006610802e+02 ylo yhi
1.5050507241870659e+02 1.6981555615342521e+02 zlo zhi

Masses

1 1
2 1

Atoms # bond

2567 1 2 -2.3853705494988590e+03 -1.9898860745756795e+02 1.5298642712788464e+02 0 0 0
2566 1 2 -2.3848067258217507e+03 -1.9845485465413918e+02 1.5244215455929776e+02 0 0 0
2459 1 2 -2.3839259166447409e+03 -1.9867160489745862e+02 1.5311399732705576e+02 0 0 0
2466 1 2 -2.3829109596926869e+03 -1.9885165904211252e+02 1.5259004126114559e+02 0 0 0
2467 1 1 -2.3820370660390918e+03 -1.9921661553654695e+02 1.5248334463169493e+02 0 0 0
2461 1 1 -2.3833634655934143e+03 -1.9878993776190364e+02 1.5157810351559411e+02 0 0 0
2281 1 2 -2.3812529137712399e+03 -1.9869654735802857e+02 1.5307866826470334e+02 0 0 0
2288 1 2 -2.3793366063684953e+03 -1.9852597432313391e+02 1.5310360123861483e+02 0 0 0
2742 1 1 -2.3884637524621830e+03 -1.9630060719052494e+02 1.5291277494320917e+02 0 0 0
2743 1 1 -2.3880015917694091e+03 -1.9711125654191002e+02 1.5303788213066420e+02 0 0 0
2741 1 1 -2.3891456121237416e+03 -1.9563194090482025e+02 1.5295730561284535e+02 0 0 0
2517 1 1 -2.3875741671759320e+03 -1.9621052488282220e+02 1.5241041172925318e+02 0 0 0
2518 1 1 -2.3867853212937812e+03 -1.9669331800997176e+02 1.5230783658617398e+02 0 0 0
2519 1 1 -2.3863357272948301e+03 -1.9607290518428707e+02 1.5279360108702235e+02 0 0 0
2521 1 1 -2.3857582851298116e+03 -1.9634081712238668e+02 1.5190195376672290e+02 0 0 0
2569 1 2 -2.3856003926820131e+03 -1.9797436026018732e+02 1.5304301391586381e+02 0 0 0
2522 1 1 -2.3855329797272798e+03 -1.9600976502725817e+02 1.5100799665675007e+02 0 0 0
2520 1 1 -2.3857204554425166e+03 -1.9690096051077361e+02 1.5268905821977674e+02 0 0 0
2545 1 1 -2.3850592909617103e+03 -1.9570628105359003e+02 1.5269869868786756e+02 0 0 0
2564 1 1 -2.3846922341431177e+03 -1.9663713270263196e+02 1.5208944546192333e+02 0 0 0
2563 1 1 -2.3845174303050535e+03 -1.9663554848428842e+02 1.5302913116027906e+02 0 0 0
2565 1 1 -2.3849044152803831e+03 -1.9750055491216096e+02 1.5236284123427643e+02 0 0 0
2460 1 1 -2.3837813272402204e+03 -1.9827608368040094e+02 1.5229719279722821e+02 0 0 0
2413 1 2 -2.3842805148704833e+03 -1.9764825347305853e+02 1.5319432200716636e+02 0 0 0
2357 1 1 -2.3835781157802194e+03 -1.9730275271827350e+02 1.5143116985737933e+02 0 0 0
2358 1 2 -2.3836650368828655e+03 -1.9716285001414039e+02 1.5235999627530495e+02 0 0 0
2562 1 1 -2.3840221928252454e+03 -1.9591132633553332e+02 1.5260294494686471e+02 0 0 0
2412 1 2 -2.3833314784863569e+03 -1.9791737970848820e+02 1.5326113544921998e+02 0 0 0
2462 1 2 -2.3828738748990504e+03 -1.9807896466572947e+02 1.5188255802015578e+02 0 0 0
2359 1 2 -2.3827632645585845e+03 -1.9732858372859224e+02 1.5257210213154659e+02 0 0 0
2356 1 2 -2.3828605588075861e+03 -1.9668892181129786e+02 1.5169787477954520e+02 0 0 0
2355 1 2 -2.3829688655932264e+03 -1.9630305063482257e+02 1.5257007731672849e+02 0 0 0
2465 1 2 -2.3822383852079320e+03 -1.9828466032442898e+02 1.5289163897169826e+02 0 0 0
2361 1 2 -2.3821366284441674e+03 -1.9651232712169374e+02 1.5307570216739040e+02 0 0 0
2463 1 2 -2.3820687002600735e+03 -1.9754406840984498e+02 1.5173927413477685e+02 0 0 0
2360 1 2 -2.3817926947087858e+03 -1.9732694653050731e+02 1.5274383518329967e+02 0 0 0
2351 1 2 -2.3816756094098700e+03 -1.9652504084848562e+02 1.5206448514863143e+02 0 0 0
2561 1 2 -2.3837383675273954e+03 -1.9614667944723018e+02 1.5171517261794295e+02 0 0 0
2353 1 2 -2.3822043914969145e+03 -1.9599433409944356e+02 1.5113449938560237e+02 0 0 0
2354 1 2 -2.3823844724292903e+03 -1.9577675936582060e+02 1.5200714689383352e+02 0 0 0
2464 1 2 -2.3816630930116012e+03 -1.9831756286366709e+02 1.5213582945762627e+02 0 0 0
2282 1 2 -2.3806960080812232e+03 -1.9817635297309045e+02 1.5254323762491254e+02 0 0 0
2283 1 2 -2.3808512371584125e+03 -1.9733885876501083e+02 1.5214710955554975e+02 0 0 0
2352 1 2 -2.3813573139544346e+03 -1.9577608452795067e+02 1.5159105526927019e+02 0 0 0
2284 1 2 -2.3809771547803070e+03 -1.9667551357148528e+02 1.5285293297040070e+02 0 0 0
2285 1 2 -2.3801989856029300e+03 -1.9717441697044222e+02 1.5290337431987476e+02 0 0 0
2287 1 2 -2.3792901879594260e+03 -1.9761591142877776e+02 1.5314309859553754e+02 0 0 0
1799 1 2 -2.3796934742154303e+03 -1.9608962489774436e+02 1.5265535769639791e+02 0 0 0
1800 1 2 -2.3804355994625575e+03 -1.9576630214807528e+02 1.5217220225870341e+02 0 0 0
2350 1 2 -2.3814736713341194e+03 -1.9572965129189944e+02 1.5257868315215478e+02 0 0 0
2286 1 2 -2.3796230026632493e+03 -1.9761684052229799e+02 1.5226513100663678e+02 0 0 0
1807 1 2 -2.3806434164030525e+03 -1.9573209069542517e+02 1.5324448843177265e+02 0 0 0
225 1 2 -2.3777605263850915e+03 -1.9608350120167430e+02 1.5294022074566254e+02 0 0 0
282 1 2 -2.3787158346686620e+03 -1.9664407357390644e+02 1.5300952612373777e+02 0 0 0
283 1 2 -2.3786928790371417e+03 -1.9597628941384045e+02 1.5229979343652545e+02 0 0 0
21 1 1 -2.3904014859290151e+03 -1.9345412782369729e+02 1.5319359489913782e+02 0 0 0
2533 1 1 -2.3881339218520488e+03 -1.9299271975151956e+02 1.5225701552985180e+02 0 0 0
24 1 1 -2.3898568153805627e+03 -1.9442895429351103e+02 1.5270861663673094e+02 0 0 0
25 1 1 -2.3893630432228933e+03 -1.9365817891773355e+02 1.5286004280591109e+02 0 0 0
2740 1 1 -2.3889408878579766e+03 -1.9476060687419417e+02 1.5319362398239309e+02 0 0 0
26 1 1 -2.3884801285369854e+03 -1.9378319001196255e+02 1.5310394730486198e+02 0 0 0
2534 1 1 -2.3888445082578505e+03 -1.9359866136596540e+02 1.5189684445668945e+02 0 0 0
2535 1 1 -2.3887027612704314e+03 -1.9449839055184452e+02 1.5221440586518844e+02 0 0 0
3244 1 1 -2.3881100862265966e+03 -1.9533451672801564e+02 1.5258619474543593e+02 0 0 0
27 1 1 -2.3876053928831229e+03 -1.9335132620262618e+02 1.5316194131939059e+02 0 0 0
3243 1 1 -2.3878284201246829e+03 -1.9455787310255181e+02 1.5297092343506537e+02 0 0 0
2536 1 1 -2.3877793393761963e+03 -1.9462006524845972e+02 1.5192351994356872e+02 0 0 0
2531 1 1 -2.3878029314340065e+03 -1.9366067737572698e+02 1.5141271439560364e+02 0 0 0
2537 1 1 -2.3870977474560209e+03 -1.9462743064793017e+02 1.5132131238926561e+02 0 0 0
2523 1 1 -2.3855726078391040e+03 -1.9507318131875473e+02 1.5123197471036858e+02 0 0 0
2526 1 1 -2.3870979594374835e+03 -1.9533874434104834e+02 1.5318549117878479e+02 0 0 0
2525 1 1 -2.3869951269493940e+03 -1.9533965768506476e+02 1.5225925266306476e+02 0 0 0
2530 1 1 -2.3872508474185429e+03 -1.9364838037506576e+02 1.5217026650016336e+02 0 0 0
2529 1 1 -2.3866040837037385e+03 -1.9422927768354202e+02 1.5250578651854727e+02 0 0 0
14 1 1 -2.3865537445170339e+03 -1.9323568313878928e+02 1.5295436444947907e+02 0 0 0
2538 1 1 -2.3868065646932228e+03 -1.9376354324152342e+02 1.5117747905180661e+02 0 0 0
2551 1 1 -2.3856152577084099e+03 -1.9376323364589788e+02 1.5250273322453924e+02 0 0 0
2524 1 1 -2.3860319709089090e+03 -1.9520498891214731e+02 1.5205323756501107e+02 0 0 0
2539 1 1 -2.3859588347548270e+03 -1.9404738603602271e+02 1.5151098346755086e+02 0 0 0
2548 1 1 -2.3860598991829052e+03 -1.9508049885017689e+02 1.5318727162328651e+02 0 0 0
13 1 1 -2.3862193068694451e+03 -1.9308878948259550e+02 1.5207835329697807e+02 0 0 0
2540 1 1 -2.3851803263376232e+03 -1.9356404579219094e+02 1.5147123649554209e+02 0 0 0
2552 1 1 -2.3854347733842533e+03 -1.9292819715306359e+02 1.5282905550525084e+02 0 0 0
2549 1 1 -2.3852139223478866e+03 -1.9472783967563689e+02 1.5303827265638958e+02 0 0 0
2544 1 1 -2.3846593476218281e+03 -1.9557018316631653e+02 1.5183995248174620e+02 0 0 0
2541 1 1 -2.3850427526565359e+03 -1.9442922580359036e+02 1.5194185450411936e+02 0 0 0
2542 1 1 -2.3845510734057621e+03 -1.9444340036780414e+02 1.5111186368488541e+02 0 0 0
2553 1 1 -2.3847912977131496e+03 -1.9352403149203724e+02 1.5312508817528547e+02 0 0 0
2560 1 2 -2.3832020791383175e+03 -1.9552341714577582e+02 1.5132198950832355e+02 0 0 0
2543 1 1 -2.3843554519287809e+03 -1.9539793105304298e+02 1.5095723746950694e+02 0 0 0
2337 1 1 -2.3841250281532070e+03 -1.9391990447911039e+02 1.5241889680397162e+02 0 0 0
2338 1 1 -2.3842325427396818e+03 -1.9481316504650709e+02 1.5267573097606186e+02 0 0 0
2335 1 1 -2.3840622057779392e+03 -1.9346527953027874e+02 1.5144249425163810e+02 0 0 0
2339 1 1 -2.3838858733084098e+03 -1.9473001200428351e+02 1.5177470954203540e+02 0 0 0
2558 1 2 -2.3832314412292562e+03 -1.9421211862450434e+02 1.5088333489261396e+02 0 0 0
2336 1 1 -2.3844801614619828e+03 -1.9299578575094540e+02 1.5219841537475270e+02 0 0 0
2340 1 2 -2.3832476231159771e+03 -1.9520077147988735e+02 1.5232131551536528e+02 0 0 0
2342 1 2 -2.3828451467749592e+03 -1.9408790643202997e+02 1.5189270696845767e+02 0 0 0
2559 1 2 -2.3828996086727470e+03 -1.9506494916209911e+02 1.5050700348657523e+02 0 0 0
2557 1 2 -2.3829853821573129e+03 -1.9327565037961577e+02 1.5124462647158532e+02 0 0 0
2343 1 2 -2.3824643979538259e+03 -1.9487506261616051e+02 1.5148332295159565e+02 0 0 0
2341 1 2 -2.3831590987911754e+03 -1.9437749829744482e+02 1.5273590030669715e+02 0 0 0
2344 1 2 -2.3822032329479703e+03 -1.9408754187901550e+02 1.5093043236602921e+02 0 0 0
2347 1 2 -2.3822310139530414e+03 -1.9481272809926415e+02 1.5250516387837578e+02 0 0 0
2556 1 2 -2.3833715240104202e+03 -1.9294563243324981e+02 1.5203212405043681e+02 0 0 0
2326 1 2 -2.3823146790062774e+03 -1.9318627820771218e+02 1.5216009072988385e+02 0 0 0
2330 1 2 -2.3818364028859605e+03 -1.9302877608229866e+02 1.5126589230981963e+02 0 0 0
2346 1 2 -2.3818345611437244e+03 -1.9415824273244513e+02 1.5188961432415579e+02 0 0 0
2555 1 2 -2.3836091455258779e+03 -1.9303600465882087e+02 1.5297563386213471e+02 0 0 0
2363 1 2 -2.3825019073713638e+03 -1.9554473382673299e+02 1.5322891950777654e+02 0 0 0
473 1 2 -2.3819547605407924e+03 -1.9383995893759371e+02 1.5288992754194251e+02 0 0 0
2345 1 2 -2.3814738915525832e+03 -1.9466081685774938e+02 1.5118444690376387e+02 0 0 0
1802 1 2 -2.3803571740249308e+03 -1.9428661938120908e+02 1.5188097522355361e+02 0 0 0
2349 1 2 -2.3811220437937382e+03 -1.9491593386619510e+02 1.5227355423047808e+02 0 0 0
1801 1 2 -2.3803547371026507e+03 -1.9515439689635258e+02 1.5146555751671144e+02 0 0 0
1803 1 2 -2.3808508675907301e+03 -1.9390226250960015e+02 1.5254273883958649e+02 0 0 0
294 1 2 -2.3797023954272631e+03 -1.9384734838743367e+02 1.5281206483148560e+02 0 0 0
2329 1 2 -2.3811076977033676e+03 -1.9367232736113232e+02 1.5128547287663625e+02 0 0 0
297 1 2 -2.3800772889500281e+03 -1.9323341229191971e+02 1.5180270474216027e+02 0 0 0
1805 1 2 -2.3798721595268880e+03 -1.9494020499763823e+02 1.5267522826012680e+02 0 0 0
2328 1 2 -2.3811978157069198e+03 -1.9302043173937275e+02 1.5208892230778318e+02 0 0 0
472 1 2 -2.3815607074885484e+03 -1.9302175605043342e+02 1.5307838705594415e+02 0 0 0
284 1 2 -2.3789674934874565e+03 -1.9535694134222473e+02 1.5300875807404788e+02 0 0 0
285 1 2 -2.3789644969628384e+03 -1.9444997481073531e+02 1.5306577391789895e+02 0 0 0
293 1 2 -2.3793401270698587e+03 -1.9418869802890862e+02 1.5203006544731500e+02 0 0 0
296 1 2 -2.3802810823758145e+03 -1.9299776700027553e+02 1.5269796485664784e+02 0 0 0
198 1 2 -2.3791923664110709e+03 -1.9286468599195692e+02 1.5241845095026392e+02 0 0 0
2348 1 2 -2.3814847397845174e+03 -1.9484779350175575e+02 1.5312333433198927e+02 0 0 0
1804 1 2 -2.3804878161917950e+03 -1.9449816225956832e+02 1.5315839414070899e+02 0 0 0
224 1 2 -2.3771245143189822e+03 -1.9540311830723167e+02 1.5311310813977812e+02 0 0 0
292 1 2 -2.3783845320836294e+03 -1.9416262929264224e+02 1.5223228211016658e+02 0 0 0
291 1 2 -2.3777196055872882e+03 -1.9419174769194026e+02 1.5288387814875929e+02 0 0 0
201 1 2 -2.3772261691058766e+03 -1.9293303052103218e+02 1.5232965864370414e+02 0 0 0
290 1 2 -2.3779966665110969e+03 -1.9504840673984447e+02 1.5261519405676154e+02 0 0 0
286 1 2 -2.3786750732544083e+03 -1.9353566488614084e+02 1.5310022033427796e+02 0 0 0
203 1 2 -2.3766269819738509e+03 -1.9346804806434130e+02 1.5301012472299251e+02 0 0 0
3918 1 1 -2.3903430844482446e+03 -1.9077965116740339e+02 1.5321393425247356e+02 0 0 0
2532 1 1 -2.3875959405212238e+03 -1.9273422522322775e+02 1.5157750120905789e+02 0 0 0
3924 1 1 -2.3883598371813091e+03 -1.9204772081511075e+02 1.5148196676091794e+02 0 0 0
3921 1 1 -2.3901217091692974e+03 -1.9191297062290164e+02 1.5290777636329199e+02 0 0 0
3923 1 1 -2.3890471801086996e+03 -1.9243215218533669e+02 1.5204744443147959e+02 0 0 0
3916 1 1 -2.3894916557084803e+03 -1.9135312102906801e+02 1.5230119639757635e+02 0 0 0
18 1 1 -2.3889343327056740e+03 -1.9187216430123848e+02 1.5307451464484058e+02 0 0 0
3922 1 1 -2.3896771093497050e+03 -1.9270404728151573e+02 1.5270481619934870e+02 0 0 0
17 1 1 -2.3880959194512830e+03 -1.9207379648228522e+02 1.5269635124462212e+02 0 0 0
3925 1 1 -2.3876567457038950e+03 -1.9149088244779719e+02 1.5182229506328306e+02 0 0 0
3914 1 1 -2.3885052267690735e+03 -1.9013578550667833e+02 1.5235281791714465e+02 0 0 0
3913 1 1 -2.3886215307685084e+03 -1.9069353012571091e+02 1.5311219046052179e+02 0 0 0
3915 1 1 -2.3885713120161372e+03 -1.9115300521382005e+02 1.5216897544069218e+02 0 0 0
3926 1 1 -2.3876483508384995e+03 -1.9058223417131100e+02 1.5176846453888720e+02 0 0 0
3927 1 1 -2.3876354220640928e+03 -1.9075240837955266e+02 1.5269121638008366e+02 0 0 0
3917 1 1 -2.3895787758087295e+03 -1.9051848295221353e+02 1.5270962028338613e+02 0 0 0
3987 1 1 -2.3861515788740480e+03 -1.9282657067108516e+02 1.5098404160631605e+02 0 0 0
3986 1 1 -2.3852087429565581e+03 -1.9263569813077609e+02 1.5081639002540973e+02 0 0 0
16 1 1 -2.3872045781869579e+03 -1.9172986348630565e+02 1.5295077494823602e+02 0 0 0
15 1 1 -2.3871821457103024e+03 -1.9262063492077820e+02 1.5262081628959419e+02 0 0 0
11 1 1 -2.3860316090028259e+03 -1.9137657510817152e+02 1.5303717625650876e+02 0 0 0
3988 1 1 -2.3866550052922771e+03 -1.9225323893152216e+02 1.5158130003099754e+02 0 0 0
3989 1 1 -2.3865485298507883e+03 -1.9139669090963989e+02 1.5195916342916831e+02 0 0 0
12 1 1 -2.3862145116035208e+03 -1.9222657704233987e+02 1.5254042240941266e+02 0 0 0
3991 1 1 -2.3852993623115190e+03 -1.9060693922194071e+02 1.5169350054544017e+02 0 0 0
3990 1 1 -2.3856021714985536e+03 -1.9140015796703523e+02 1.5214811853969820e+02 0 0 0
3985 1 1 -2.3856740329364106e+03 -1.9184475064528419e+02 1.5115916536292170e+02 0 0 0
3982 1 1 -2.3848774677716169e+03 -1.9121188574555919e+02 1.5323075586043660e+02 0 0 0
3984 1 1 -2.3854095116761455e+03 -1.9240975063972635e+02 1.5188081684814574e+02 0 0 0
3983 1 1 -2.3849142382083828e+03 -1.9191099341458784e+02 1.5262975236858605e+02 0 0 0
3975 1 1 -2.3846600014598321e+03 -1.9164895118027076e+02 1.5158741468637598e+02 0 0 0
3928 1 1 -2.3867685853934740e+03 -1.9050579963003742e+02 1.5252058666212213e+02 0 0 0
3992 1 1 -2.3854363675012810e+03 -1.9051243398080135e+02 1.5264240301141197e+02 0 0 0
2334 1 1 -2.3840669282367753e+03 -1.9252124863662584e+02 1.5122554220049702e+02 0 0 0
3976 1 1 -2.3842998685631583e+03 -1.9098903183029006e+02 1.5215207413944924e+02 0 0 0
2333 1 1 -2.3836364616537421e+03 -1.9165054268657650e+02 1.5117351466880831e+02 0 0 0
3974 1 1 -2.3839960979413868e+03 -1.9199158341123723e+02 1.5218034595437948e+02 0 0 0
3977 1 1 -2.3836825284190318e+03 -1.9029393444651555e+02 1.5236506229605629e+02 0 0 0
2332 1 2 -2.3826588675495791e+03 -1.9143106388893904e+02 1.5121581336068962e+02 0 0 0
2324 1 2 -2.3829278081534326e+03 -1.9210769993720774e+02 1.5239400490970309e+02 0 0 0
2323 1 2 -2.3832368829774523e+03 -1.9121602669144767e+02 1.5215991085364277e+02 0 0 0
2331 1 2 -2.3825074258771115e+03 -1.9239543840607024e+02 1.5129421735302429e+02 0 0 0
3973 1 1 -2.3837149507419940e+03 -1.9173902459298415e+02 1.5305300345615112e+02 0 0 0
2325 1 2 -2.3825711070496764e+03 -1.9269846762904356e+02 1.5298845874155484e+02 0 0 0
2322 1 2 -2.3829799001423589e+03 -1.9088214251861393e+02 1.5300367555284271e+02 0 0 0
301 1 2 -2.3822056484995574e+03 -1.9091740113855633e+02 1.5210916773289659e+02 0 0 0
2327 1 2 -2.3818765965525558e+03 -1.9237273567460923e+02 1.5230510412725329e+02 0 0 0
2317 1 2 -2.3820555362568057e+03 -1.9162992357617460e+02 1.5297063393674247e+02 0 0 0
300 1 2 -2.3815226554241153e+03 -1.9121227574876249e+02 1.5145106655976014e+02 0 0 0
172 1 2 -2.3815657633762371e+03 -1.9054388395138338e+02 1.5295966101835154e+02 0 0 0
299 1 2 -2.3814195208314900e+03 -1.9213610211339207e+02 1.5139362534654049e+02 0 0 0
180 1 2 -2.3798046785428669e+03 -1.9215908498776844e+02 1.5180170895628495e+02 0 0 0
179 1 2 -2.3807124618003063e+03 -1.9212322413666124e+02 1.5214032646735703e+02 0 0 0
175 1 2 -2.3800393900956847e+03 -1.9133604317307726e+02 1.5232923545119087e+02 0 0 0
298 1 2 -2.3805965147471948e+03 -1.9266476957119454e+02 1.5123818953719618e+02 0 0 0
181 1 1 -2.3803842178875957e+03 -1.9156571841028386e+02 1.5135548399594015e+02 0 0 0
170 1 2 -2.3806892711697278e+03 -1.9050464870564849e+02 1.5149035169827832e+02 0 0 0
178 1 2 -2.3809701148024355e+03 -1.9218909383456190e+02 1.5305343251611285e+02 0 0 0
173 1 2 -2.3811941876832761e+03 -1.9126053555480473e+02 1.5250470887259354e+02 0 0 0
176 1 2 -2.3798676253358799e+03 -1.9205438529036718e+02 1.5290775976356235e+02 0 0 0
195 1 2 -2.3790273804033509e+03 -1.9129869603035294e+02 1.5280431604298113e+02 0 0 0
171 1 2 -2.3814407517099589e+03 -1.9014175208049093e+02 1.5209291777811345e+02 0 0 0
182 1 2 -2.3796800609068332e+03 -1.9090727341023896e+02 1.5145090405443233e+02 0 0 0
174 1 2 -2.3805236839722265e+03 -1.9052133920512185e+02 1.5248502581022186e+02 0 0 0
183 1 2 -2.3794320876988413e+03 -1.9030008004867659e+02 1.5219266892915286e+02 0 0 0
194 1 2 -2.3796141629901726e+03 -1.9071921201983412e+02 1.5322391418995608e+02 0 0 0
197 1 2 -2.3787862690892766e+03 -1.9204670118509577e+02 1.5202874386186923e+02 0 0 0
199 1 2 -2.3788154089888121e+03 -1.9228266395634932e+02 1.5305101620306397e+02 0 0 0
200 1 2 -2.3780886475921152e+03 -1.9270381928732380e+02 1.5270759171537176e+02 0 0 0
196 1 2 -2.3781588763900118e+03 -1.9158319008149527e+02 1.5259735024915267e+02 0 0 0
202 1 2 -2.3769972032189958e+03 -1.9253293807577134e+02 1.5319135678524128e+02 0 0 0
335 1 2 -2.3774300497852846e+03 -1.9082095127442187e+02 1.5281304439609303e+02 0 0 0
184 1 2 -2.3784088036523690e+03 -1.9057202939200440e+02 1.5209770108441958e+02 0 0 0
334 1 2 -2.3769635706365066e+03 -1.9160400153336099e+02 1.5250712199742469e+02 0 0 0
185 1 2 -2.3785407238388739e+03 -1.9036171187121874e+02 1.5303132986909677e+02 0 0 0
3843 1 1 -2.3876038107691702e+03 -1.8962361173239319e+02 1.5282991731254742e+02 0 0 0
3838 1 1 -2.3887015894470651e+03 -1.8931479418659708e+02 1.5325655521958356e+02 0 0 0
3929 1 1 -2.3863044835735341e+03 -1.8963178817790376e+02 1.5247348684018917e+02 0 0 0
3930 1 1 -2.3862901231277424e+03 -1.8886248692822062e+02 1.5309098868638733e+02 0 0 0
3931 1 1 -2.3862616350281382e+03 -1.8788334002253598e+02 1.5298462706050270e+02 0 0 0
3995 1 1 -2.3852604907415393e+03 -1.8905797360627739e+02 1.5315674316920129e+02 0 0 0
3996 1 1 -2.3847978989165586e+03 -1.8813696716000229e+02 1.5316848455489384e+02 0 0 0
3997 1 2 -2.3845408670634024e+03 -1.8874757792108852e+02 1.5242226043125964e+02 0 0 0
302 1 2 -2.3825602265479133e+03 -1.9002606311127136e+02 1.5192140765449054e+02 0 0 0
4000 1 2 -2.3833699511353771e+03 -1.8919076388158032e+02 1.5224905339114895e+02 0 0 0
3999 1 2 -2.3830102727012973e+03 -1.8836590950928752e+02 1.5269381342443583e+02 0 0 0
3978 1 1 -2.3844587725672236e+03 -1.8983874680346790e+02 1.5260199286098501e+02 0 0 0
3998 1 2 -2.3838341237912068e+03 -1.8875961664627897e+02 1.5307463496459985e+02 0 0 0
304 1 2 -2.3823681202003859e+03 -1.8986063405746395e+02 1.5295428300905726e+02 0 0 0
303 1 2 -2.3823235465816215e+03 -1.8916082845608577e+02 1.5236449494779262e+02 0 0 0
305 1 2 -2.3832683618600531e+03 -1.8982100059913043e+02 1.5323636159810704e+02 0 0 0
169 1 2 -2.3801438467502880e+03 -1.8977330506898852e+02 1.5132737622217545e+02 0 0 0
168 1 2 -2.3804707886149886e+03 -1.8950868819133407e+02 1.5215688781687561e+02 0 0 0
308 1 2 -2.3810839483733403e+03 -1.8944907125491727e+02 1.5303608842965988e+02 0 0 0
165 1 2 -2.3801690960406049e+03 -1.8869476885760460e+02 1.5296176198252601e+02 0 0 0
167 1 2 -2.3812684351627508e+03 -1.8900124443271167e+02 1.5201973609666663e+02 0 0 0
166 1 2 -2.3810540863378005e+03 -1.8831346522422115e+02 1.5269083333059683e+02 0 0 0
309 1 2 -2.3801971098337840e+03 -1.8970936428355674e+02 1.5325900682245330e+02 0 0 0
319 1 2 -2.3792607882939069e+03 -1.8945770536374826e+02 1.5286210157125535e+02 0 0 0
318 1 2 -2.3783813692780191e+03 -1.8925259901715822e+02 1.5314430571492881e+02 0 0 0
2599 1 2 -2.3854681650727130e+03 -2.0149456963182473e+02 1.5567825370103279e+02 0 0 0
2598 1 1 -2.3845085993639814e+03 -2.0146260720606563e+02 1.5562545713873567e+02 0 0 0
2894 1 1 -2.3826912842145171e+03 -2.0140371421882790e+02 1.5505579530324991e+02 0 0 0
2893 1 1 -2.3832864182881758e+03 -2.0125735491982084e+02 1.5415327680424738e+02 0 0 0
2892 1 1 -2.3823230213323491e+03 -2.0141310510234305e+02 1.5397621905958857e+02 0 0 0
2597 1 1 -2.3842278626168331e+03 -2.0123044537518089e+02 1.5468200304843151e+02 0 0 0
2895 1 2 -2.3832947271746675e+03 -2.0171480567315007e+02 1.5573304060135746e+02 0 0 0
1975 1 2 -2.3818128373069985e+03 -2.0183003584522066e+02 1.5585007436530032e+02 0 0 0
2891 1 2 -2.3816453779841613e+03 -2.0130244578761864e+02 1.5461779420622716e+02 0 0 0
2890 1 2 -2.3808993304768169e+03 -2.0140097711947240e+02 1.5518250047941424e+02 0 0 0
2792 1 1 -2.3902193284670216e+03 -1.9889546792471856e+02 1.5548998663036087e+02 0 0 0
2793 1 1 -2.3893183340390997e+03 -1.9880537806983887e+02 1.5518110904815470e+02 0 0 0
2794 1 1 -2.3890514041325418e+03 -1.9948773602337747e+02 1.5572669725166526e+02 0 0 0
2797 1 1 -2.3884885391102030e+03 -1.9943501698286147e+02 1.5486150538723180e+02 0 0 0
2798 1 1 -2.3882706683059455e+03 -1.9852295696114328e+02 1.5506642256021058e+02 0 0 0
2607 1 1 -2.3882959300389257e+03 -2.0025510023152137e+02 1.5548214419520960e+02 0 0 0
2795 1 1 -2.3880897648547761e+03 -1.9923400452758744e+02 1.5582591473466050e+02 0 0 0
2608 1 1 -2.3873635380767687e+03 -2.0036812816267508e+02 1.5569503377634445e+02 0 0 0
2623 1 1 -2.3877642956236105e+03 -1.9880370802584662e+02 1.5413035678523477e+02 0 0 0
2796 1 1 -2.3875333378626101e+03 -1.9940977758233754e+02 1.5507272264191499e+02 0 0 0
2791 1 1 -2.3900357912441305e+03 -1.9970904501936931e+02 1.5597689668356173e+02 0 0 0
2624 1 2 -2.3871696068481533e+03 -1.9944037109621053e+02 1.5384916930362817e+02 0 0 0
2616 1 2 -2.3865500604079953e+03 -1.9955446862790086e+02 1.5564680375343480e+02 0 0 0
2626 1 2 -2.3866588054297054e+03 -1.9875952893120970e+02 1.5476323473860123e+02 0 0 0
2625 1 2 -2.3864991652738545e+03 -1.9964869202081712e+02 1.5452859897588490e+02 0 0 0
2615 1 2 -2.3860608581516262e+03 -2.0035607838082566e+02 1.5573812606587234e+02 0 0 0
2915 1 2 -2.3860886074853220e+03 -1.9900234889985336e+02 1.5386319014951960e+02 0 0 0
2630 1 2 -2.3857103129505135e+03 -1.9872433532972275e+02 1.5554088961400424e+02 0 0 0
2631 1 2 -2.3855090509682823e+03 -1.9952979740686141e+02 1.5503002888891214e+02 0 0 0
2916 1 2 -2.3855456522137661e+03 -1.9854823764172650e+02 1.5449708689292441e+02 0 0 0
2914 1 2 -2.3853644836494968e+03 -1.9971807688567992e+02 1.5392084012929107e+02 0 0 0
2912 1 2 -2.3850029982187521e+03 -2.0052696785504230e+02 1.5540170885689477e+02 0 0 0
2913 1 2 -2.3854750132744666e+03 -2.0048962127447422e+02 1.5452407394110560e+02 0 0 0
2632 1 2 -2.3846799282045099e+03 -1.9936407175051414e+02 1.5544037679875024e+02 0 0 0
2458 1 2 -2.3844967319967423e+03 -1.9936401294682034e+02 1.5334862668006730e+02 0 0 0
2455 1 2 -2.3845552989188104e+03 -1.9900758405854205e+02 1.5439883455461847e+02 0 0 0
2568 1 2 -2.3849911760103532e+03 -1.9840714613890995e+02 1.5362076307091687e+02 0 0 0
2452 1 1 -2.3826851242703246e+03 -2.0046984262776584e+02 1.5361939908749613e+02 0 0 0
2453 1 2 -2.3832513826023778e+03 -1.9973027023477019e+02 1.5337274849610253e+02 0 0 0
2468 1 2 -2.3820806042143749e+03 -1.9947088893880345e+02 1.5340687831131248e+02 0 0 0
2451 1 1 -2.3817515197295579e+03 -2.0053408723745210e+02 1.5383673683839552e+02 0 0 0
2456 1 2 -2.3843876286827258e+03 -1.9998860593082566e+02 1.5456336470696820e+02 0 0 0
2457 1 2 -2.3843700242431087e+03 -2.0029594387460946e+02 1.5366273858413004e+02 0 0 0
2454 1 2 -2.3836609734429317e+03 -1.9924044106451569e+02 1.5408717851836354e+02 0 0 0
2418 1 2 -2.3839565297347631e+03 -1.9846671010247934e+02 1.5508334073992748e+02 0 0 0
2419 1 2 -2.3836475359779733e+03 -1.9939700451325564e+02 1.5509243690178809e+02 0 0 0
2448 1 2 -2.3834059529433898e+03 -2.0026311612576052e+02 1.5444176931100361e+02 0 0 0
2596 1 2 -2.3837132547660203e+03 -2.0080093177427079e+02 1.5542148156239617e+02 0 0 0
2483 1 2 -2.3830423496388667e+03 -1.9855017347386593e+02 1.5453515668865634e+02 0 0 0
2482 1 2 -2.3827688631507140e+03 -1.9869680756865040e+02 1.5367891564705167e+02 0 0 0
2421 1 2 -2.3830366538664043e+03 -1.9841110853174530e+02 1.5560550017516721e+02 0 0 0
2447 1 2 -2.3826376538838131e+03 -1.9962229979946116e+02 1.5427907595202100e+02 0 0 0
2446 1 2 -2.3824791313131032e+03 -1.9915708603531758e+02 1.5509611127197843e+02 0 0 0
2449 1 2 -2.3828777312642492e+03 -2.0022814529771378e+02 1.5527058223949055e+02 0 0 0
2450 1 1 -2.3822626503136516e+03 -2.0052033289342597e+02 1.5459829302509664e+02 0 0 0
2481 1 2 -2.3818430160622097e+03 -1.9851985458391579e+02 1.5405709752786660e+02 0 0 0
1976 1 2 -2.3816898121001555e+03 -2.0087686058732183e+02 1.5564549243945123e+02 0 0 0
2445 1 2 -2.3820772226207878e+03 -1.9897838788471412e+02 1.5597204795916423e+02 0 0 0
2633 1 2 -2.3840367637643558e+03 -1.9894320318670768e+02 1.5596789147128285e+02 0 0 0
2595 1 2 -2.3838036013087944e+03 -2.0001803176018549e+02 1.5594290041350931e+02 0 0 0
2420 1 2 -2.3830873324624499e+03 -1.9931515634465015e+02 1.5591084930992182e+02 0 0 0
2290 1 2 -2.3802331679776048e+03 -1.9902999237944891e+02 1.5330460341975362e+02 0 0 0
2470 1 2 -2.3814974826097473e+03 -1.9951819525463495e+02 1.5432756307985568e+02 0 0 0
2878 1 2 -2.3816185718027050e+03 -1.9975389743946229e+02 1.5541371376330946e+02 0 0 0
2469 1 2 -2.3811622614808798e+03 -1.9973466242649275e+02 1.5350828826123902e+02 0 0 0
2877 1 2 -2.3812561413565809e+03 -2.0040086431529650e+02 1.5477275370942235e+02 0 0 0
2471 1 2 -2.3814176940497259e+03 -1.9881160207399333e+02 1.5497358084425420e+02 0 0 0
2876 1 1 -2.3806967678709721e+03 -2.0065217195360324e+02 1.5404679723527761e+02 0 0 0
2874 1 2 -2.3806004269041000e+03 -1.9947490122089741e+02 1.5505525122019614e+02 0 0 0
2291 1 2 -2.3807193378481866e+03 -1.9876456676779364e+02 1.5405744692816728e+02 0 0 0
2875 1 2 -2.3803236812026939e+03 -1.9974711721036041e+02 1.5422445520701672e+02 0 0 0
2292 1 2 -2.3798236488093544e+03 -1.9873121968742404e+02 1.5430377165928834e+02 0 0 0
2289 1 2 -2.3793929216217211e+03 -1.9940583180101632e+02 1.5357586946848227e+02 0 0 0
2881 1 2 -2.3808280724908091e+03 -2.0038799005719798e+02 1.5580414881485814e+02 0 0 0
2872 1 2 -2.3798998865583521e+03 -2.0032287272603162e+02 1.5509055044838351e+02 0 0 0
2873 1 2 -2.3796706821421035e+03 -1.9941867699697013e+02 1.5524577059512418e+02 0 0 0
2277 1 2 -2.3790843576620241e+03 -1.9842026037820617e+02 1.5505825507742566e+02 0 0 0
2871 1 2 -2.3789324689727123e+03 -2.0015630838746497e+02 1.5530832573228724e+02 0 0 0
2276 1 2 -2.3788658346863531e+03 -1.9920900367767976e+02 1.5458664744661186e+02 0 0 0
2888 1 2 -2.3800320235031068e+03 -2.0112295989592980e+02 1.5574263418757462e+02 0 0 0
2444 1 2 -2.3811668810602250e+03 -1.9894668326526534e+02 1.5597243816851633e+02 0 0 0
2882 1 2 -2.3803182947234836e+03 -1.9962319612651888e+02 1.5600472250662403e+02 0 0 0
2294 1 2 -2.3800734915083585e+03 -1.9853459866850633e+02 1.5587086798329446e+02 0 0 0
2870 1 2 -2.3785002927429623e+03 -1.9925263470205249e+02 1.5563485960483237e+02 0 0 0
2275 1 2 -2.3780968697907388e+03 -1.9867410532042447e+02 1.5470325206937341e+02 0 0 0
2867 1 2 -2.3773906169605912e+03 -1.9884849985592174e+02 1.5554784667563752e+02 0 0 0
2866 1 2 -2.3765022469994042e+03 -1.9859796851951015e+02 1.5552827625315115e+02 0 0 0
2869 1 2 -2.3779244394860525e+03 -1.9998300617770121e+02 1.5576357300476158e+02 0 0 0
2868 1 2 -2.3770764647418118e+03 -1.9966155842571692e+02 1.5600994480699856e+02 0 0 0
2784 1 1 -2.3908392874522042e+03 -1.9790564687775540e+02 1.5566089547391442e+02 0 0 0
2783 1 1 -2.3908692996320406e+03 -1.9710723134878398e+02 1.5507432804636710e+02 0 0 0
2782 1 1 -2.3914337806472136e+03 -1.9699854857366711e+02 1.5581629122269175e+02 0 0 0
2777 1 1 -2.3918126913771225e+03 -1.9582809208725757e+02 1.5591550838013163e+02 0 0 0
2775 1 1 -2.3913296513214168e+03 -1.9595580939973550e+02 1.5491888233060766e+02 0 0 0
2748 1 1 -2.3901837309694297e+03 -1.9793385570161237e+02 1.5480978931196930e+02 0 0 0
2773 1 1 -2.3906073552435901e+03 -1.9625312453916334e+02 1.5589213892543077e+02 0 0 0
2774 1 1 -2.3903859726030023e+03 -1.9597360060017317e+02 1.5498299461834287e+02 0 0 0
3251 1 1 -2.3900188838201989e+03 -1.9575552313279553e+02 1.5396383497176527e+02 0 0 0
2744 1 1 -2.3888296781180375e+03 -1.9740369959703750e+02 1.5335595523548346e+02 0 0 0
2799 1 1 -2.3886773047786128e+03 -1.9840159435362952e+02 1.5599350746819971e+02 0 0 0
3250 1 1 -2.3900650711834796e+03 -1.9668752094241813e+02 1.5414482997989640e+02 0 0 0
2747 1 1 -2.3894700743701783e+03 -1.9784426101051326e+02 1.5411601324685344e+02 0 0 0
3249 1 1 -2.3892921162054713e+03 -1.9647156219670998e+02 1.5364187489189493e+02 0 0 0
2746 1 1 -2.3887098534027964e+03 -1.9833872702244935e+02 1.5418491913095664e+02 0 0 0
2745 1 1 -2.3880533132039768e+03 -1.9771447430318284e+02 1.5392773058437922e+02 0 0 0
3247 1 1 -2.3881281290151005e+03 -1.9651089276149816e+02 1.5390244496634111e+02 0 0 0
2749 1 1 -2.3897519907386386e+03 -1.9709864014141903e+02 1.5502876967272277e+02 0 0 0
2751 1 1 -2.3889848633795655e+03 -1.9777146617289779e+02 1.5506887053384708e+02 0 0 0
2388 1 1 -2.3893602144197021e+03 -1.9602486096419685e+02 1.5477812047200973e+02 0 0 0
3248 1 1 -2.3888599520795988e+03 -1.9692756549244478e+02 1.5435083748306471e+02 0 0 0