LAMMPS data file via write_data, version 16 Mar 2018, timestep = 0

4000 atoms
2 atom types
4012 bonds
2 bond types

-9.6310583613520748e+00 9.1674975780645340e+00 xlo xhi
-9.4182522940932891e+00 9.6760723628608272e+00 ylo yhi
-1.0326667606983113e+01 9.5433891469515846e+00 zlo zhi

Masses

1 1
2 1

Atoms # bond

210 1 2 -4.2707678286735424e+00 -4.1806488234139136e+00 -7.5328036083722543e+00 0 0 0
826 1 1 -2.6506100294979067e+00 -3.9674842702868376e+00 -8.5291684769849461e+00 0 0 0
827 1 1 -1.7134326175005026e+00 -4.0286059496644695e+00 -8.5058294324283281e+00 0 0 0
828 1 1 -1.8721880010701393e+00 -4.6043264459998170e+00 -7.8337644328602041e+00 0 0 0
829 1 2 -9.9134523107336414e-01 -4.5648366578828075e+00 -8.0477245322604656e+00 0 0 0
834 1 2 -6.5638076354265706e-01 -3.9640685419211690e+00 -8.9757199591394308e+00 0 0 0
1203 1 2 5.1993078845931628e-01 -4.6580540813584799e+00 -7.6377339508814615e+00 0 0 0
1207 1 2 1.7695012159358066e+00 -4.5974537136936702e+00 -7.8809866090075378e+00 0 0 0
868 1 2 -5.0841950878292224e+00 -1.3069239768634220e+00 -8.0905582392908020e+00 0 0 0
866 1 2 -4.4228565292756690e+00 -2.2986481234794693e+00 -7.6091939854656641e+00 0 0 0
825 1 2 -2.9168818207073421e+00 -3.9306222737039405e+00 -7.5573304893186597e+00 0 0 0
819 1 2 -3.7148529726889343e+00 -3.2588633732518524e+00 -8.2772996983716070e+00 0 0 0
815 1 2 -4.1459335296936315e+00 -1.6656017102201262e+00 -8.3747237192626915e+00 0 0 0
816 1 2 -3.4400264256461708e+00 -1.7434914111905560e+00 -9.0164526826411269e+00 0 0 0
817 1 2 -2.9550964284120433e+00 -2.3422103339784628e+00 -9.5397418222707930e+00 0 0 0
820 1 2 -3.4331773544656219e+00 -2.3705506716514426e+00 -8.0265026055753079e+00 0 0 0
818 1 2 -3.0304655612433566e+00 -3.0862137144780220e+00 -8.9224145068463940e+00 0 0 0
855 1 2 -2.5154766077439477e+00 -2.0996312770115821e+00 -8.5539678133297414e+00 0 0 0
850 1 2 -2.1788280085663394e+00 -1.2776681760652739e+00 -9.3994075590976003e+00 0 0 0
854 1 2 -1.9099087293835986e+00 -1.4495373638181226e+00 -8.3453620975273459e+00 0 0 0
856 1 2 -1.9818165206665772e+00 -2.8408109735730065e+00 -8.6648895438790579e+00 0 0 0
904 1 2 -3.1504982508318817e+00 -1.3072403986895549e+00 -7.8028915377941566e+00 0 0 0
821 1 2 -2.6978549476538576e+00 -2.9652008401720051e+00 -7.8600984481194338e+00 0 0 0
822 1 2 -1.9465926138182952e+00 -3.4662070384794097e+00 -7.6959382882576364e+00 0 0 0
835 1 2 1.4485414456974913e-01 -3.5337065679661959e+00 -9.4417212040138292e+00 0 0 0
1204 1 2 -9.3850798261049528e-02 -3.9511163626205188e+00 -7.8831489192665041e+00 0 0 0
1205 1 1 7.2060073008896142e-01 -3.9152333240499937e+00 -8.4564186288782572e+00 0 0 0
832 1 2 -1.0734868466515224e+00 -3.2538226997123023e+00 -8.2393679419924091e+00 0 0 0
857 1 2 -1.5348608468079739e+00 -2.3948607806513733e+00 -7.9028046279635751e+00 0 0 0
833 1 2 -1.2094563902594233e+00 -3.2086719105789077e+00 -9.1816057821177264e+00 0 0 0
836 1 2 5.5548595329505475e-04 -3.0838086027251959e+00 -8.6198790472113185e+00 0 0 0
853 1 2 -1.3557815360084431e+00 -1.9595612192835834e+00 -8.9769030101205196e+00 0 0 0
839 1 2 4.3783851718337274e-01 -1.6527648817442677e+00 -9.6499058456638185e+00 0 0 0
838 1 2 -5.2999780802720542e-01 -1.6754297757637129e+00 -9.6903531495149817e+00 0 0 0
978 1 2 1.0223395233552670e+00 -3.0021950026909350e+00 -9.0357065736689304e+00 0 0 0
837 1 2 -3.0440646665641252e-01 -2.5050845763543168e+00 -9.3042165999648194e+00 0 0 0
1146 1 2 -5.2268328043552015e-01 -2.3445270233328994e+00 -8.1660758896737722e+00 0 0 0
977 1 2 6.6525091900651467e-01 -2.2886186930764798e+00 -8.4854586307036097e+00 0 0 0
1147 1 2 -8.2207220449421348e-01 -1.4375700874110253e+00 -8.1211898897501609e+00 0 0 0
840 1 2 -4.5576596897764624e-02 -1.6171044130119807e+00 -8.8239310032209275e+00 0 0 0
976 1 2 9.3141142586889880e-01 -1.3074073804418027e+00 -8.4345346052799908e+00 0 0 0
1383 1 2 1.7788906869175383e-01 -1.6008733085963300e+00 -7.5967401358161784e+00 0 0 0
1144 1 2 7.7873447772809057e-01 -3.1569832027580156e+00 -7.7713137903626857e+00 0 0 0
1145 1 2 1.1509218350544307e-02 -2.6913425695841888e+00 -7.4916840174675556e+00 0 0 0
1206 1 2 1.6435922290795872e+00 -3.6668829986185210e+00 -8.2876806947854043e+00 0 0 0
979 1 2 1.3656487050056532e+00 -2.0932260184153089e+00 -9.2615109323250984e+00 0 0 0
1339 1 2 2.5666476256731841e+00 -3.1442720604079355e+00 -8.0710816311840912e+00 0 0 0
980 1 2 1.6630020666355372e+00 -1.5312140210968579e+00 -9.9050335188156797e+00 0 0 0
1213 1 2 2.5376266921298729e+00 -1.9607414189086882e+00 -9.2358714392458321e+00 0 0 0
1212 1 2 2.1704275841512946e+00 -2.8134549842786831e+00 -8.9907483144485170e+00 0 0 0
1214 1 2 2.1865386320465445e+00 -1.5713265454083007e+00 -8.4434926677105828e+00 0 0 0
1211 1 2 1.6237615561113192e+00 -2.5367545947226127e+00 -8.2274743336716618e+00 0 0 0
1256 1 2 3.3340591234408512e+00 -1.3770635395941484e+00 -8.8039319944875309e+00 0 0 0
1257 1 2 3.1683785744858550e+00 -2.2871405136801264e+00 -8.4991572615283513e+00 0 0 0
1381 1 2 1.6026994591202033e+00 -1.3156035993564830e+00 -7.5340840913084097e+00 0 0 0
1343 1 2 3.6229401157744192e+00 -1.5010857047105188e+00 -7.7894766700313518e+00 0 0 0
1260 1 2 3.6125706060890725e+00 -3.7641815788789281e+00 -7.7870717143447630e+00 0 0 0
1259 1 2 3.9243940235570394e+00 -2.9536544735444359e+00 -8.0941928582550666e+00 0 0 0
1258 1 2 4.1304629156043466e+00 -2.0486704641699438e+00 -8.4810868993800383e+00 0 0 0
1478 1 2 4.9659425244289430e+00 -2.2719590471579862e+00 -7.9090958869328993e+00 0 0 0
1479 1 2 4.7028532939462258e+00 -1.2859763555873842e+00 -7.6630112912972885e+00 0 0 0
1481 1 2 5.8796310076420966e+00 -1.3631851189098523e+00 -7.8117857754923676e+00 0 0 0
1477 1 2 4.9112039104661829e+00 -3.1716248597421819e+00 -7.6087611183257664e+00 0 0 0
813 1 2 -4.8354587150935560e+00 -2.5637410758341173e-01 -8.3775140275816931e+00 0 0 0
812 1 2 -4.6976597346812436e+00 6.6009304469176699e-01 -7.9653399366632192e+00 0 0 0
811 1 2 -5.6372810821364308e+00 7.6469350012319870e-01 -7.7295290072657306e+00 0 0 0
876 1 2 -5.7455367663110470e+00 -4.1012271436758596e-01 -7.7751355433913094e+00 0 0 0
905 1 2 -2.8614181390624522e+00 -1.0042512007133328e+00 -8.5878244962118693e+00 0 0 0
907 1 2 -2.8011069333714578e+00 -4.5772540479514423e-01 -9.5456763043140569e+00 0 0 0
849 1 2 -1.6207746724293797e+00 -8.8654112954348896e-01 -9.9847950133747432e+00 0 0 0
906 1 2 -3.6113685381611149e+00 -6.6035719561692408e-01 -9.1747650318160083e+00 0 0 0
851 1 2 -1.8441601579505935e+00 -3.7790792481773600e-01 -9.0448911221348478e+00 0 0 0
814 1 2 -4.0369638026154755e+00 -7.6597853207323863e-01 -8.1958746632220656e+00 0 0 0
796 1 2 -4.2242038331829050e+00 4.9589233222129786e-01 -8.8638484570551324e+00 0 0 0
908 1 1 -2.4967759694083069e+00 3.3669588533483175e-01 -9.9866548815218223e+00 0 0 0
719 1 2 -2.2854920751273533e+00 -7.1065482327207519e-01 -7.6378943263170793e+00 0 0 0
797 1 2 -3.5121372542383904e+00 8.7995895968971605e-01 -8.3921850521895731e+00 0 0 0
803 1 2 -3.8280338124689610e+00 2.0250522381604680e-01 -7.6537454151864095e+00 0 0 0
795 1 2 -3.3941467418977611e+00 3.8723099740115058e-01 -9.3330443164403842e+00 0 0 0
721 1 2 -1.9854417752243565e+00 2.7813268542012171e-01 -8.0177756551362052e+00 0 0 0
794 1 2 -2.6486921440037681e+00 5.6701589088112980e-01 -8.8460206496027656e+00 0 0 0
793 1 2 -2.4905933589325966e+00 1.1954259320771083e+00 -9.6127365138552818e+00 0 0 0
791 1 2 -2.1267391101692876e+00 1.3685051313879302e+00 -8.2453084581747440e+00 0 0 0
801 1 2 -2.7851158433726835e+00 8.0035197804178404e-01 -7.5927975000609873e+00 0 0 0
802 1 2 -3.0056312533043634e+00 -6.2416382154991699e-02 -8.0501692394628250e+00 0 0 0
852 1 2 -1.2043962544029390e+00 -1.0573765018044963e+00 -9.0346576894251065e+00 0 0 0
841 1 2 -2.1622627884109841e-01 -6.8931927591785647e-01 -9.0842226492808713e+00 0 0 0
909 1 2 -1.5425833266822291e+00 4.2462345748685970e-01 -9.8060845396905254e+00 0 0 0
910 1 2 -1.5619919659635044e+00 9.5021729670021282e-01 -9.0405338445780234e+00 0 0 0
848 1 2 -8.2328953051478593e-01 -3.6150689712314177e-01 -9.9850328578176786e+00 0 0 0
842 1 2 -1.2651604327126573e-01 -7.2590208558298297e-01 -8.1405340686252732e+00 0 0 0
847 1 2 1.0309737318572276e-02 -6.5430629117076555e-01 -1.0324680618338149e+01 0 0 0
720 1 2 -1.4150639036235364e+00 -4.9785944800267667e-01 -7.9469975900457719e+00 0 0 0
846 1 2 7.3880877956662289e-02 9.5811890933793969e-02 -9.7341722725237378e+00 0 0 0
975 1 2 9.0508865031418817e-01 -3.3108172429872068e-01 -8.2767581261700744e+00 0 0 0
1217 1 2 1.0987700459351026e+00 1.0546172538938907e-01 -9.2104630754387600e+00 0 0 0
845 1 2 -4.7206045941586910e-01 8.5704820100701506e-01 -9.4936731730963988e+00 0 0 0
844 1 2 -8.9997145077889973e-01 1.1818492227386873e-01 -9.0130012203865526e+00 0 0 0
843 1 2 -6.9924149307698056e-03 1.4149859577252938e-01 -8.4668537080446296e+00 0 0 0
914 1 2 -1.0214452531580411e+00 6.2539592986204939e-01 -8.0790819099923983e+00 0 0 0
913 1 2 -6.0938058797527483e-01 1.2668359983116260e+00 -8.5550533105279527e+00 0 0 0
987 1 2 6.7935053184772631e-01 9.6911386234576280e-01 -8.5732056016345677e+00 0 0 0
988 1 2 7.4480258591600110e-02 9.6322838391688870e-01 -7.7735768727688219e+00 0 0 0
1216 1 2 9.8048256531046507e-01 -8.2570054693879291e-01 -9.4084151594504366e+00 0 0 0
981 1 2 2.4582877790682169e+00 -1.0237434712682043e+00 -9.6219800636967712e+00 0 0 0
1252 1 2 2.8243909625631152e+00 -8.4124296384449715e-01 -7.9498813897098488e+00 0 0 0
1215 1 2 1.8112991504003706e+00 -8.6952063102129573e-01 -8.8783479029355981e+00 0 0 0
982 1 2 2.7755008709942315e+00 -3.5023180745671662e-01 -1.0156515505270564e+01 0 0 0
1253 1 2 2.8649874949029930e+00 -4.5963653107722408e-01 -8.8497906206102694e+00 0 0 0
1344 1 2 3.7557511964097845e+00 -5.3240903825096841e-01 -7.5247051396341682e+00 0 0 0
1218 1 2 1.7821576139280595e+00 3.8019699223354081e-01 -8.6299257189744143e+00 0 0 0
1249 1 2 1.1209148015070003e+00 7.0205270065262237e-01 -7.6621860547337306e+00 0 0 0
986 1 2 1.3109118689350749e+00 1.1621344996166776e+00 -9.3605416530243311e+00 0 0 0
1251 1 2 2.0150949531997591e+00 -3.9825046433990213e-01 -7.9737105716819405e+00 0 0 0
983 1 2 2.3012758048800723e+00 1.1272635153761656e-01 -9.5268755952831441e+00 0 0 0
1254 1 2 3.7565444017951606e+00 -1.0870049291055482e-01 -8.7601507345455669e+00 0 0 0
1250 1 2 2.0624755683131615e+00 4.9796422560028009e-01 -7.5760686748820598e+00 0 0 0
984 1 2 3.0643409687185601e+00 6.3779731190695832e-01 -9.2932858790457189e+00 0 0 0
1346 1 2 2.9115986085591699e+00 3.8918560533767643e-01 -8.2411722868714836e+00 0 0 0
1219 1 2 1.8299459966581899e+00 1.2267644263211319e+00 -8.2853138812251004e+00 0 0 0
985 1 2 2.2754816426603357e+00 1.1595418220524067e+00 -9.2844676156772081e+00 0 0 0
1347 1 2 2.9740594607047131e+00 1.3662429382847077e+00 -8.4429301827372587e+00 0 0 0
1255 1 2 4.1638308747534456e+00 -9.4860546159074755e-01 -8.5202484162182515e+00 0 0 0
1482 1 2 5.5237599165046207e+00 -5.3367665161479028e-01 -7.5393162528754782e+00 0 0 0
962 1 2 3.8441369922186217e+00 4.6939274820978694e-01 -7.8459054332161546e+00 0 0 0
1373 1 2 3.8097361815406576e+00 1.4908427229351811e+00 -7.7513157382695148e+00 0 0 0
961 1 2 4.6865142321181033e+00 4.3165039590626918e-02 -8.0801009520148952e+00 0 0 0
960 1 2 5.4705836194448780e+00 4.7787257661129068e-01 -7.7715419905653702e+00 0 0 0
1350 1 2 4.8177828670780105e+00 1.1712276758478366e+00 -8.5070342991323287e+00 0 0 0
1349 1 2 3.9300604103487342e+00 1.2683373857162823e+00 -8.7944582052725906e+00 0 0 0
697 1 2 -4.8484065066720747e+00 2.6516028119693349e+00 -7.8657613033424845e+00 0 0 0
696 1 2 -5.1648324533772154e+00 3.5388227019076219e+00 -7.7269903419200592e+00 0 0 0
798 1 2 -3.2276741550460786e+00 1.5823718763753969e+00 -9.0062116790950348e+00 0 0 0
792 1 2 -2.2220522355042465e+00 1.8632269348306882e+00 -9.0677680336831887e+00 0 0 0
799 1 2 -3.0575250375951395e+00 1.8349861368272713e+00 -8.0723835350240929e+00 0 0 0
777 1 2 -4.0539816154051067e+00 3.2539579057058083e+00 -8.1441651983906134e+00 0 0 0
775 1 2 -4.2210281624226242e+00 1.6222008992032448e+00 -8.5033866044632038e+00 0 0 0
790 1 2 -2.1562975879290875e+00 2.2526091635890211e+00 -7.8726449284722957e+00 0 0 0
774 1 2 -4.0597685487215802e+00 2.4455738457515697e+00 -8.9606149509775328e+00 0 0 0
995 1 2 -1.6938184320171128e+00 2.9207758391984595e+00 -8.5551863602056333e+00 0 0 0
773 1 2 -3.1198818397808976e+00 2.6708561747030020e+00 -9.1191324318797875e+00 0 0 0
776 1 2 -3.8871570431713667e+00 2.3144607697216806e+00 -7.8708419183079759e+00 0 0 0
772 1 2 -2.9379513743516057e+00 2.9057443846771362e+00 -8.1650592612783051e+00 0 0 0
778 1 2 -3.6536522728363181e+00 4.1679165616930840e+00 -8.1991697225353057e+00 0 0 0
997 1 2 -2.5857945721134294e+00 3.9543223091612374e+00 -8.2412038562115093e+00 0 0 0
996 1 2 -2.0358520632886168e+00 3.3452368689401322e+00 -7.7435387889157914e+00 0 0 0
911 1 2 -1.1936595943267909e+00 1.7330059996746157e+00 -9.4780963644728402e+00 0 0 0
912 1 2 -9.4079483556894039e-01 2.1819946204292813e+00 -8.6554361815681595e+00 0 0 0
786 1 2 -1.1218836032183623e+00 1.7114300737421837e+00 -7.6980926597046846e+00 0 0 0
1248 1 2 9.7111809250878811e-01 1.6588628799647083e+00 -7.7505981698574713e+00 0 0 0
989 1 2 2.5889245179369982e-02 1.9328753099014711e+00 -8.1382058716671697e+00 0 0 0
990 1 2 1.9279924708242485e-01 1.7893220140993042e+00 -9.0029903137168912e+00 0 0 0
783 1 2 -9.7278390700437467e-01 3.6474792046140680e+00 -8.1444724600482683e+00 0 0 0
994 1 2 -9.6668040013436152e-01 3.1418279210264388e+00 -9.1815332369496350e+00 0 0 0
993 1 2 -3.3602184759151103e-02 3.3086906917055150e+00 -9.3731217497720269e+00 0 0 0
991 1 2 2.2346237106301944e-01 1.6293201995126998e+00 -9.9422959626704870e+00 0 0 0
1246 1 2 5.5963006267855664e-01 2.7185952220080756e+00 -8.8323209542405881e+00 0 0 0
992 1 2 -1.8667887401670874e-01 2.4418407901807591e+00 -9.7492284972622549e+00 0 0 0
785 1 2 -1.0988255766950952e+00 2.6191752685126102e+00 -7.6661002041421202e+00 0 0 0
1245 1 2 7.3020893993376756e-01 3.0683993806991947e+00 -7.9471366919768354e+00 0 0 0
1047 1 2 1.5070315153428568e-01 3.7917385628271307e+00 -8.3432429678488571e+00 0 0 0
784 1 2 -3.6904471030511055e-01 2.9330148743051736e+00 -8.2125460217778912e+00 0 0 0
1048 1 2 9.9325670082442230e-01 3.7836128799486350e+00 -8.8716168040302801e+00 0 0 0
1247 1 2 1.2335425498820869e+00 2.1263293490972410e+00 -8.5244373576062848e+00 0 0 0
1348 1 2 3.1902154696834466e+00 1.7915620660640699e+00 -9.2473739271747313e+00 0 0 0
1220 1 2 2.0773167796914254e+00 1.6865622650336973e+00 -7.5112546234240707e+00 0 0 0
1222 1 2 2.1744612623510235e+00 2.1188210375238397e+00 -8.9970818544935085e+00 0 0 0
1221 1 2 2.3703240167951933e+00 2.3693014852704737e+00 -8.1363810234005314e+00 0 0 0
1223 1 2 1.7979617859495420e+00 3.0366414786745581e+00 -8.7471355095992713e+00 0 0 0
1227 1 2 2.8990881248325553e+00 2.8873749522634906e+00 -8.9527330474663351e+00 0 0 0
1228 1 2 3.4010112944773958e+00 2.3399412134608215e+00 -8.4175931550514136e+00 0 0 0
1224 1 2 2.0110473976926833e+00 3.4107455736442365e+00 -7.9234199362087532e+00 0 0 0
1244 1 2 1.4627528801094558e+00 2.5925168246314141e+00 -7.5130560537218152e+00 0 0 0
1226 1 2 2.9038666093840937e+00 3.8055512371843956e+00 -8.6470577120358083e+00 0 0 0
1225 1 2 2.0554590579096268e+00 4.1248192566869788e+00 -8.5183259708487871e+00 0 0 0
1230 1 2 3.1055197434002046e+00 3.1965759874133148e+00 -7.8273420852918294e+00 0 0 0
1039 1 2 1.1837142400244034e+00 3.9744900983136096e+00 -7.8415527363486497e+00 0 0 0
1231 1 2 3.3496798619878212e+00 4.1212331195177283e+00 -7.7381562554386587e+00 0 0 0
1351 1 2 5.3468990962903788e+00 1.5164719926415384e+00 -7.6611168041522921e+00 0 0 0
1229 1 2 3.8509055386061890e+00 3.2662740198410471e+00 -8.3373070171392722e+00 0 0 0
1370 1 2 4.5292768634393541e+00 2.3464426245447974e+00 -8.1327692407866188e+00 0 0 0
1369 1 2 4.9021144018865996e+00 3.1130855550950645e+00 -7.7014104677861388e+00 0 0 0
508 1 1 -4.8366243499704540e+00 4.5462170056955609e+00 -7.9985291741949078e+00 0 0 0
782 1 2 -1.6114731767187698e+00 4.2949982145332282e+00 -7.9015493969484787e+00 0 0 0
998 1 2 -2.7701716650579602e+00 4.5976366198895455e+00 -7.5605863773718625e+00 0 0 0
1046 1 2 2.3401396643535502e-01 4.4769893477779812e+00 -7.6558277108346617e+00 0 0 0
1045 1 2 -5.9567103280477085e-01 4.7620928980952781e+00 -8.0952483460733422e+00 0 0 0
1049 1 2 8.3920054450246107e-01 4.6821928198411378e+00 -8.6511815882224656e+00 0 0 0
1051 1 2 8.1369019062327297e-01 5.3914248875533106e+00 -7.5214998497257222e+00 0 0 0
1005 1 2 -1.4479618647608321e+00 5.2096905680253975e+00 -7.5516404187416537e+00 0 0 0
1007 1 2 -2.8813454586382548e-01 5.6151084014293575e+00 -7.5010937568007527e+00 0 0 0
1050 1 2 1.4989301364672256e+00 5.0385974703040848e+00 -8.0550288225453048e+00 0 0 0
1054 1 2 2.5906009109299042e+00 5.0088511247864291e+00 -7.5344173274913269e+00 0 0 0
1177 1 2 -1.2667542651142143e+00 -7.5162827981419014e+00 -4.7817573705695748e+00 0 0 0
1180 1 2 -9.3953516578318685e-01 -7.0400889208966575e+00 -5.8232396516778371e+00 0 0 0
1405 1 2 7.3275513383589475e-01 -7.5689568557106872e+00 -5.4448511692287784e+00 0 0 0
1178 1 2 -3.4608276555229223e-01 -7.2405564923541528e+00 -4.9234686709321203e+00 0 0 0
1404 1 2 -2.0391401387173029e-03 -7.5680485431008089e+00 -6.0262210306554094e+00 0 0 0
1406 1 2 8.6229145672243634e-01 -6.7388519491081853e+00 -4.9209832334557984e+00 0 0 0
1182 1 2 2.3496636196226767e-01 -6.7413638039953794e+00 -6.9173904895368121e+00 0 0 0
1401 1 2 1.1760672423713328e+00 -6.7154980512517630e+00 -6.1753375661946386e+00 0 0 0
1396 1 2 2.2762207364022804e+00 -6.7174122657925901e+00 -6.1736013579302575e+00 0 0 0
1411 1 2 2.9258138980500887e+00 -7.0411189012658104e+00 -5.3475198850294703e+00 0 0 0
1414 1 2 1.7561000521592116e+00 -7.2607136443719771e+00 -5.4490948789108993e+00 0 0 0
1410 1 2 3.7951979218279863e+00 -6.9249296887143190e+00 -4.9644511967333989e+00 0 0 0
1415 1 2 2.2988509394003005e+00 -7.6594967646425820e+00 -4.7369065362959919e+00 0 0 0
205 1 2 -4.3466803999494008e+00 -4.9538088767418138e+00 -5.8233218906037534e+00 0 0 0
204 1 2 -4.7778302719226113e+00 -5.4079365452172476e+00 -5.1377858722316327e+00 0 0 0
214 1 2 -5.6107697721315484e+00 -4.6562386150865649e+00 -5.6992991646901574e+00 0 0 0
212 1 2 -5.2372237979198770e+00 -4.1898665133638140e+00 -6.6123094288190201e+00 0 0 0
211 1 2 -4.6205911312403227e+00 -4.9288522179746703e+00 -6.9342347475970190e+00 0 0 0
215 1 2 -6.1527771291792099e+00 -4.6896451678808777e+00 -4.9274340932215681e+00 0 0 0
1197 1 2 -1.7120834670507086e+00 -6.5224270643400226e+00 -5.4957794352261109e+00 0 0 0
1160 1 2 -4.2415430957927933e+00 -4.0767448628317000e+00 -5.1657717348165804e+00 0 0 0
209 1 2 -3.5486941893658184e+00 -4.5942623899595265e+00 -7.0172520938275058e+00 0 0 0
208 1 2 -3.1202274013965337e+00 -5.0594892041634090e+00 -6.3138666263930077e+00 0 0 0
206 1 2 -4.1415006879032967e+00 -4.0393564858835660e+00 -6.2240242764830187e+00 0 0 0
1165 1 1 -2.8014824126083915e+00 -6.1492723131709432e+00 -5.3013586719146018e+00 0 0 0
207 1 2 -3.4309792925836167e+00 -4.4709411353278830e+00 -5.6731882468539165e+00 0 0 0
1200 1 2 -1.7995914278067608e+00 -5.4950837357480209e+00 -7.3256319160854204e+00 0 0 0
1199 1 2 -1.7719668760239524e+00 -6.1732934112263145e+00 -6.6137344404905827e+00 0 0 0
824 1 2 -2.4160745970918884e+00 -4.3750922950217124e+00 -6.9477397447908826e+00 0 0 0
1186 1 2 -1.6181639937834404e+00 -4.8798890853024339e+00 -6.3590187087619103e+00 0 0 0
1187 1 2 -2.3001179378879604e+00 -4.3949552682991717e+00 -5.9472327002654959e+00 0 0 0
1167 1 2 -2.6985412460030287e+00 -5.0995680481285639e+00 -5.1235482436125412e+00 0 0 0
1166 1 2 -2.3092660641151359e+00 -5.4981043242686214e+00 -5.8288778282801248e+00 0 0 0
1158 1 2 -2.8538565044029456e+00 -4.0660434034257582e+00 -4.7243242592096690e+00 0 0 0
1164 1 2 -3.6485626854749369e+00 -5.7187396053741342e+00 -5.4837360937300899e+00 0 0 0
1161 1 2 -3.7978425797854904e+00 -4.8924058349365742e+00 -4.7410794505958593e+00 0 0 0
1188 1 2 -1.6511437258011608e+00 -4.7369497698187537e+00 -5.3370785275186599e+00 0 0 0
1163 1 2 -4.0727901753541937e+00 -6.1501955327782731e+00 -4.7602877336515368e+00 0 0 0
1196 1 2 -1.7031062865548410e+00 -5.7548730653670352e+00 -4.9211304312371267e+00 0 0 0
1181 1 2 -6.6885421112304977e-01 -6.5664130540895629e+00 -6.6471957501258192e+00 0 0 0
1403 1 2 1.1538461798155754e-01 -6.6284067011751047e+00 -5.7269014702833561e+00 0 0 0
1179 1 2 -7.3949540514243861e-01 -6.4006702436833098e+00 -5.1763214296413800e+00 0 0 0
830 1 2 -1.0991150527002380e+00 -4.1966978572803582e+00 -7.1532829622798628e+00 0 0 0
1201 1 2 -8.8140231692423676e-01 -5.4450503560901398e+00 -6.9460067250154935e+00 0 0 0
1202 1 2 -2.7887531353884348e-01 -4.7931146549482460e+00 -7.1677147854107099e+00 0 0 0
1154 1 2 -1.2241660128909209e+00 -3.9916526276098820e+00 -5.8761652002706164e+00 0 0 0
1198 1 2 -1.2448582782998203e+00 -5.7695872235757966e+00 -5.9193056338278325e+00 0 0 0
1183 1 2 3.3770119857724934e-01 -5.7992164685442038e+00 -6.6654061047337576e+00 0 0 0
1402 1 2 8.5203514752621223e-01 -5.9818658283871784e+00 -5.7698222345096344e+00 0 0 0
1185 1 2 -6.8781171025506871e-01 -4.9107758376427526e+00 -6.0872301041554007e+00 0 0 0
1190 1 2 -7.7919439770823473e-01 -5.3349607857478345e+00 -5.0645638471893770e+00 0 0 0
1184 1 2 -2.6175181469654379e-01 -5.7242035906955495e+00 -5.9707229243635425e+00 0 0 0
1141 1 2 -1.3864020046924130e-01 -4.0241965788532346e+00 -5.5645820104031856e+00 0 0 0
737 1 2 3.8930312054416089e-01 -4.9416380931304476e+00 -6.2134619379733733e+00 0 0 0
736 1 2 7.8154147616951108e-01 -4.0890735084296637e+00 -6.2931570562703945e+00 0 0 0
1189 1 2 -8.3733218612917548e-01 -4.3637585395104201e+00 -4.9431431523240059e+00 0 0 0
1560 1 2 2.0790525321170863e-01 -5.8825935135555998e+00 -4.9548909703481989e+00 0 0 0
741 1 2 1.1784948872612155e-01 -4.8092446345902733e+00 -4.8878475720784351e+00 0 0 0
740 1 2 9.5876134766770305e-01 -4.7938182382998953e+00 -5.3335635580753191e+00 0 0 0
1337 1 2 3.2172309087347659e+00 -4.4537030195279952e+00 -7.1122261063676202e+00 0 0 0
1400 1 2 1.4545691521842417e+00 -6.2896524851861635e+00 -6.9805109731350923e+00 0 0 0
1413 1 2 1.8571820279182263e+00 -6.3649728148414688e+00 -5.0928986156411176e+00 0 0 0
738 1 2 1.2256562442109287e+00 -5.0474407890814819e+00 -6.8370372526134293e+00 0 0 0
739 1 2 1.5705055902948157e+00 -4.6396390159486520e+00 -6.0595702018948137e+00 0 0 0
1561 1 2 1.1374686439155606e+00 -5.6464727572874933e+00 -4.8295947565980963e+00 0 0 0
1392 1 2 1.7205215304661947e+00 -4.1327211569031110e+00 -4.9671465139850941e+00 0 0 0
1395 1 2 1.9779128230149121e+00 -5.8183141332827297e+00 -6.0200585441506167e+00 0 0 0
1397 1 2 3.0534128590737550e+00 -6.1201690077981290e+00 -6.2528376321673358e+00 0 0 0
1263 1 2 3.7914135408504501e+00 -5.0559472716891056e+00 -6.3323458680554987e+00 0 0 0
1412 1 2 2.7583989737940575e+00 -6.1883590079878079e+00 -5.2383462082983749e+00 0 0 0
1399 1 2 2.3388101663140297e+00 -5.9684972584946605e+00 -7.0843451695283290e+00 0 0 0
1394 1 2 2.0316050315888079e+00 -5.1740511469911299e+00 -5.2763650926486907e+00 0 0 0
1398 1 2 3.2425882049638108e+00 -5.5243868886037832e+00 -7.0566544668560782e+00 0 0 0
1336 1 2 2.4279953944475188e+00 -4.9389205524707833e+00 -7.0266983289172451e+00 0 0 0
1335 1 2 2.7427638091439492e+00 -5.0842863632225850e+00 -6.1315379575940838e+00 0 0 0
1265 1 2 3.2432096673471826e+00 -4.1393921123745940e+00 -6.1549691109655891e+00 0 0 0
1391 1 2 2.3929623058316585e+00 -4.2071114106001879e+00 -5.5752474702205523e+00 0 0 0
1334 1 2 3.1859379135433206e+00 -5.0388164448560016e+00 -5.3410941617074350e+00 0 0 0
1291 1 2 3.8391122785622604e+00 -5.9769704761017222e+00 -5.3583921283983935e+00 0 0 0
1261 1 2 4.3805475929026807e+00 -4.1005132277562213e+00 -7.2433071155724331e+00 0 0 0
1264 1 2 4.2090145294000454e+00 -4.1804601082944250e+00 -6.2378377228447306e+00 0 0 0
1527 1 2 3.9246615361241530e+00 -4.2189795284813423e+00 -5.1731050239533118e+00 0 0 0
1292 1 2 4.7867305359835566e+00 -6.1805961480387097e+00 -5.4566843632605400e+00 0 0 0
1289 1 2 5.3163715236277209e+00 -5.1379521183291175e+00 -5.1375231779641570e+00 0 0 0
1262 1 2 4.1414353608816548e+00 -5.0204617995832850e+00 -7.2720629841913960e+00 0 0 0
1290 1 2 4.3916981945354232e+00 -5.1756739271072334e+00 -5.4776194142952122e+00 0 0 0
1288 1 2 5.3766988929707953e+00 -4.4527628336877560e+00 -5.9652137287200997e+00 0 0 0
1525 1 2 5.7598518529918552e+00 -4.0287562042103797e+00 -5.0959325423036921e+00 0 0 0
1524 1 2 6.6390122246400551e+00 -4.4492210716724498e+00 -5.2579606156904761e+00 0 0 0
1523 1 2 7.4176769172710850e+00 -4.0863132010865586e+00 -4.8104820085372326e+00 0 0 0
291 1 2 -7.1587775807376470e+00 -2.0425742935863660e+00 -4.7619515621263488e+00 0 0 0
884 1 2 -7.0577291764114847e+00 -3.0167836386960194e+00 -5.4932383320413249e+00 0 0 0
883 1 2 -7.1455587461545411e+00 -2.2056447903500644e+00 -5.9302108346435851e+00 0 0 0
201 1 2 -5.2833769577946592e+00 -3.7874577638979114e+00 -5.0584595499633265e+00 0 0 0
213 1 2 -6.0069945924844728e+00 -3.8466899580164706e+00 -6.1237443330656376e+00 0 0 0
200 1 2 -4.8724684192308212e+00 -3.4158449543431821e+00 -5.8253948555695869e+00 0 0 0
216 1 2 -6.3477610336466315e+00 -3.7777310526581793e+00 -5.1665942503375870e+00 0 0 0
869 1 2 -5.6793090289424910e+00 -1.4411525117611164e+00 -7.3030378388819068e+00 0 0 0
882 1 2 -6.4707427024772874e+00 -2.1132342986825949e+00 -6.6453489016381360e+00 0 0 0
867 1 2 -4.3389803417638131e+00 -1.3812257163709096e+00 -7.3923455155791018e+00 0 0 0
888 1 2 -4.8878124424421809e+00 -2.0986656017922432e+00 -6.6125031676227755e+00 0 0 0
887 1 2 -5.0522730811982921e+00 -2.3955376105259036e+00 -5.6909675315691173e+00 0 0 0
881 1 2 -5.7331173589068323e+00 -1.7248251123313558e+00 -6.1341271183526098e+00 0 0 0
886 1 2 -5.6018110044627418e+00 -2.8664335754773820e+00 -6.3603633831749411e+00 0 0 0
199 1 2 -4.5890160446480266e+00 -3.0054333218575962e+00 -5.0255955049612142e+00 0 0 0
198 1 2 -4.5092373714527856e+00 -2.1236623898990907e+00 -4.7334841602367845e+00 0 0 0
890 1 2 -4.7640083143971141e+00 -1.4437867670050681e+00 -5.4962210803498692e+00 0 0 0
880 1 2 -6.3238547767116939e+00 -1.6630588883450343e+00 -5.4606673753040074e+00 0 0 0
309 1 2 -5.5413455388688186e+00 -1.4355397952490787e+00 -4.7641657992671700e+00 0 0 0
885 1 2 -6.1186783478001914e+00 -2.7386854331097576e+00 -5.5596777067356120e+00 0 0 0
863 1 2 -4.6980449202135333e+00 -3.1670567966268646e+00 -6.9900998051611118e+00 0 0 0
864 1 2 -3.7633683120818895e+00 -3.1166781240890424e+00 -7.2092418448305793e+00 0 0 0
823 1 2 -1.9335637892098057e+00 -3.6060578397686602e+00 -6.7654227405416680e+00 0 0 0
861 1 2 -3.5116221866648778e+00 -3.3020861940490858e+00 -5.6486056450839355e+00 0 0 0
860 1 2 -3.1405979273670979e+00 -3.6684762537412228e+00 -6.4381469832024036e+00 0 0 0
891 1 2 -4.0261341632101484e+00 -1.8359153436330518e+00 -5.9163014829658893e+00 0 0 0
865 1 2 -3.5966165559364707e+00 -2.1758965573773068e+00 -7.1030866174215133e+00 0 0 0
862 1 2 -4.0627374024720933e+00 -2.8719049270474164e+00 -6.2718968311551562e+00 0 0 0
859 1 2 -2.7510183406391508e+00 -2.9159251749708255e+00 -6.8428522725500711e+00 0 0 0
892 1 2 -3.1663657209150267e+00 -2.2878798006848640e+00 -6.1128040962810948e+00 0 0 0
903 1 2 -2.5956334942143791e+00 -1.9262942244221339e+00 -7.3459697819730891e+00 0 0 0
896 1 2 -2.3521440114023684e+00 -2.9531746314604956e+00 -5.8977836890825763e+00 0 0 0
858 1 2 -1.8565735247559747e+00 -2.6626041181341686e+00 -7.0708173113487129e+00 0 0 0
895 1 2 -2.0579314654692955e+00 -2.0333283212514934e+00 -6.1913107959772367e+00 0 0 0
902 1 2 -1.7332392163517198e+00 -1.5906748900488938e+00 -7.0951730064569301e+00 0 0 0
325 1 2 -2.0020291008075435e+00 -1.2587810384243776e+00 -5.4302496776329372e+00 0 0 0
893 1 2 -3.0158054321378227e+00 -1.4034427459858441e+00 -5.7612398184902052e+00 0 0 0
324 1 2 -2.5992743000691170e+00 -2.0255892085394800e+00 -5.1369539534052420e+00 0 0 0
323 1 2 -3.4929322511263998e+00 -2.3049917740499017e+00 -5.1510526173078954e+00 0 0 0
322 1 2 -3.6956087469017773e+00 -1.3409648929991396e+00 -4.9331160932848075e+00 0 0 0
897 1 2 -2.6480082098175313e+00 -3.0805964552105447e+00 -4.9178334419686411e+00 0 0 0
1155 1 2 -1.7119097269689050e+00 -3.5430951718835657e+00 -5.2608617054923474e+00 0 0 0
1384 1 2 9.7437261652272644e-01 -2.1154246891925181e+00 -7.4706986394824799e+00 0 0 0
1142 1 2 -3.5831171695020664e-01 -3.9303746410960043e+00 -6.4818217990339244e+00 0 0 0
1143 1 2 3.1568036383435566e-01 -3.5486446213453702e+00 -7.0180937867606401e+00 0 0 0
734 1 1 8.1130034356718117e-01 -3.8267062474124587e+00 -5.2530087286384779e+00 0 0 0
831 1 2 -9.4554610890456958e-01 -3.2883436792835412e+00 -7.3037361156841110e+00 0 0 0
1153 1 2 -1.2210995843114851e+00 -3.0921300589003948e+00 -6.2288797871975286e+00 0 0 0
1151 1 2 -8.7061397283491937e-01 -2.1892121791089081e+00 -7.1406138543090041e+00 0 0 0
901 1 2 -1.3188971701228589e+00 -1.2981509349543114e+00 -6.2529189690648366e+00 0 0 0
899 1 2 -1.5692846762693835e+00 -2.5097083460432605e+00 -5.0949116506574654e+00 0 0 0
735 1 2 4.7179104199518562e-01 -3.2157719476965991e+00 -5.9057670873116086e+00 0 0 0
900 1 2 -1.0071218096815144e+00 -2.1383403564067325e+00 -5.8333501723239989e+00 0 0 0
1140 1 2 -5.8023749193102880e-01 -3.2211023329683042e+00 -5.4367835497453720e+00 0 0 0
1152 1 2 -3.6937678657858514e-01 -2.7768994641290461e+00 -6.4933862602750301e+00 0 0 0
1150 1 2 -2.3596639462938165e-01 -1.6708487943400196e+00 -6.5819370416463032e+00 0 0 0
1138 1 2 6.5024931411829093e-02 -2.0758076859811152e+00 -5.5991793387670317e+00 0 0 0
1385 1 2 6.0519971848468312e-01 -2.4084238556595463e+00 -6.6251909698664893e+00 0 0 0
1382 1 2 8.5614528200471551e-01 -1.2571698778278386e+00 -6.9386507484099695e+00 0 0 0
1137 1 2 6.4090775089873697e-01 -1.2782908776045212e+00 -5.8294574509151653e+00 0 0 0
726 1 2 -1.0437270792547821e+00 -1.4391079027850344e+00 -4.9232201755523457e+00 0 0 0
1139 1 2 -4.0379512986688459e-01 -2.5016900948933536e+00 -4.8745503151376282e+00 0 0 0
729 1 2 6.1893845745274123e-01 -1.8936237323745959e+00 -4.7384368151200702e+00 0 0 0