LAMMPS data file via write_data, version 16 Mar 2018, timestep = 0

4000 atoms
2 atom types
4012 bonds
2 bond types

-2.3917237903900632e+03 -2.3738879994037798e+03 xlo xhi
-2.0467247252030575e+02 -1.8325100519048877e+02 ylo yhi
1.5040139386161880e+02 1.7019842437341808e+02 zlo zhi

Masses

1 1
2 1

Atoms # bond

2719 1 1 -2.3843738311004904e+03 -2.0205127911855845e+02 1.5308250079744695e+02 0 0 0
2760 1 1 -2.3871498125760713e+03 -2.0008252166885080e+02 1.5315834123603850e+02 0 0 0
2759 1 1 -2.3863724350794964e+03 -2.0067093681428960e+02 1.5304465086598259e+02 0 0 0
2752 1 1 -2.3853841029824471e+03 -2.0014268179476605e+02 1.5297893262873365e+02 0 0 0
2753 1 1 -2.3860615387418898e+03 -1.9955493236286767e+02 1.5273225326409931e+02 0 0 0
2722 1 1 -2.3844508281617577e+03 -2.0086365497568323e+02 1.5211446040791921e+02 0 0 0
2727 1 1 -2.3849778353319925e+03 -1.9985942555981731e+02 1.5207294394132629e+02 0 0 0
2726 1 1 -2.3848333888892380e+03 -2.0008970276387265e+02 1.5114377195110316e+02 0 0 0
2718 1 1 -2.3850441979918046e+03 -2.0132394194000389e+02 1.5290737272071789e+02 0 0 0
2750 1 1 -2.3841265318384426e+03 -1.9992112449160209e+02 1.5267353160280996e+02 0 0 0
2724 1 1 -2.3841835664131240e+03 -1.9933686597794113e+02 1.5160513392185553e+02 0 0 0
2720 1 1 -2.3834253126337130e+03 -2.0195089974781365e+02 1.5304237467404425e+02 0 0 0
2723 1 1 -2.3839160782654562e+03 -2.0029875242381036e+02 1.5154898533984141e+02 0 0 0
3516 1 1 -2.3823749901366364e+03 -2.0196883872644671e+02 1.5275585833862596e+02 0 0 0
2721 1 1 -2.3838935683512364e+03 -2.0111464987951970e+02 1.5285495017952363e+02 0 0 0
3859 1 1 -2.3831930992564544e+03 -2.0051096235597032e+02 1.5228286499586045e+02 0 0 0
3517 1 1 -2.3826848592651263e+03 -2.0113571438406916e+02 1.5307739346644078e+02 0 0 0
3860 1 1 -2.3824670114147252e+03 -2.0009985708050874e+02 1.5178540349143725e+02 0 0 0
3518 1 1 -2.3821577045825379e+03 -2.0102245514570984e+02 1.5234675059425069e+02 0 0 0
3858 1 1 -2.3825810847980815e+03 -2.0008372947930724e+02 1.5285697803168028e+02 0 0 0
3861 1 1 -2.3816981251346774e+03 -1.9979457702909994e+02 1.5229266201603582e+02 0 0 0
3519 1 1 -2.3815681433732079e+03 -2.0074106235327926e+02 1.5310187810368262e+02 0 0 0
3862 1 1 -2.3809771396658903e+03 -1.9982014613820991e+02 1.5300993469175941e+02 0 0 0
3863 1 1 -2.3800620037317522e+03 -1.9972424584597127e+02 1.5277794188636707e+02 0 0 0
2761 1 1 -2.3875153063078583e+03 -1.9923096485977206e+02 1.5295079177382578e+02 0 0 0
2994 1 1 -2.3871635763029153e+03 -1.9693259914833416e+02 1.5200880357781475e+02 0 0 0
2515 1 1 -2.3873946852613444e+03 -1.9805589244311477e+02 1.5234900624794295e+02 0 0 0
2995 1 1 -2.3876432252394188e+03 -1.9716374266320005e+02 1.5280076216550142e+02 0 0 0
2516 1 1 -2.3867317301575035e+03 -1.9875138633439136e+02 1.5234888694021902e+02 0 0 0
2725 1 1 -2.3850518850047738e+03 -1.9913582369025886e+02 1.5123717311989023e+02 0 0 0
2517 1 1 -2.3860861232890029e+03 -1.9915097407238986e+02 1.5167642438182597e+02 0 0 0
2519 1 1 -2.3856738268382351e+03 -1.9748095819988171e+02 1.5102263759810336e+02 0 0 0
2518 1 1 -2.3859432888115321e+03 -1.9841392972562741e+02 1.5109916594706431e+02 0 0 0
2520 1 1 -2.3861363024562538e+03 -1.9771701102873493e+02 1.5185170391858099e+02 0 0 0
2514 1 1 -2.3866257569448735e+03 -1.9775187059071772e+02 1.5279219423556833e+02 0 0 0
2522 1 1 -2.3852082597895533e+03 -1.9745579194938196e+02 1.5301004389015918e+02 0 0 0
2521 1 1 -2.3854306759414967e+03 -1.9719866233153425e+02 1.5212617087950991e+02 0 0 0
2943 1 1 -2.3857880113108176e+03 -1.9834110232449072e+02 1.5283568727245432e+02 0 0 0
2728 1 1 -2.3848768992957098e+03 -1.9897236268507004e+02 1.5241961127915152e+02 0 0 0
2729 1 1 -2.3847007386775313e+03 -1.9838149686106232e+02 1.5310788537839150e+02 0 0 0
2513 1 1 -2.3861348853268046e+03 -1.9695947827478602e+02 1.5297112564966224e+02 0 0 0
2536 1 1 -2.3842197421011083e+03 -1.9832207467944278e+02 1.5102294317307138e+02 0 0 0
2525 1 1 -2.3843037100501333e+03 -1.9749606962786783e+02 1.5248311744556051e+02 0 0 0
2537 1 1 -2.3849200679409264e+03 -1.9812712726983077e+02 1.5178167318369893e+02 0 0 0
2538 1 1 -2.3846685302645260e+03 -1.9732960331801999e+02 1.5131717510776124e+02 0 0 0
2939 1 1 -2.3841364001504585e+03 -1.9675111265151571e+02 1.5322716548556218e+02 0 0 0
2539 1 1 -2.3847052363941989e+03 -1.9738228386647336e+02 1.5040337352788657e+02 0 0 0
2733 1 1 -2.3832649960983977e+03 -1.9929073301877730e+02 1.5219557954937335e+02 0 0 0
2732 1 1 -2.3839229719949872e+03 -1.9857950676243496e+02 1.5234550818211270e+02 0 0 0
2526 1 1 -2.3836307292640345e+03 -1.9764994878455872e+02 1.5182493540381483e+02 0 0 0
2534 1 1 -2.3827256118206446e+03 -1.9775582512204210e+02 1.5124999787586867e+02 0 0 0
2527 1 1 -2.3830203685907586e+03 -1.9816474327331650e+02 1.5230366894695192e+02 0 0 0
2533 1 1 -2.3826700615988907e+03 -1.9714932053515358e+02 1.5194584220220858e+02 0 0 0
2734 1 1 -2.3824271397419730e+03 -1.9895754093332121e+02 1.5195924789721198e+02 0 0 0
2535 1 1 -2.3832734620388646e+03 -1.9856481345400957e+02 1.5125421208682670e+02 0 0 0
2531 1 1 -2.3833861024901980e+03 -1.9747651038026126e+02 1.5298160002667319e+02 0 0 0
2528 1 1 -2.3819956620952466e+03 -1.9799640200314468e+02 1.5217863794925060e+02 0 0 0
3522 1 1 -2.3825458612121570e+03 -1.9885680719783690e+02 1.5293915534182730e+02 0 0 0
2529 1 1 -2.3822350786601214e+03 -1.9740023499615882e+02 1.5292336262836699e+02 0 0 0
2532 1 1 -2.3834302111071888e+03 -1.9675742069714155e+02 1.5237853138892908e+02 0 0 0
2546 1 1 -2.3815596483364698e+03 -1.9698364104792157e+02 1.5217349966166819e+02 0 0 0
2540 1 1 -2.3837281318021282e+03 -1.9737682670880761e+02 1.5081847271535580e+02 0 0 0
2736 1 1 -2.3817189283970347e+03 -1.9821402604682288e+02 1.5110223799973980e+02 0 0 0
3523 1 1 -2.3816058744311986e+03 -1.9872668437176020e+02 1.5275409553922091e+02 0 0 0
2545 1 1 -2.3817354663334386e+03 -1.9706477049962459e+02 1.5122482134949652e+02 0 0 0
2735 1 1 -2.3814266180028276e+03 -1.9889571737419297e+02 1.5177288319043942e+02 0 0 0
2737 1 1 -2.3807992552775022e+03 -1.9794340448509934e+02 1.5098606758210667e+02 0 0 0
2548 1 1 -2.3799408806451265e+03 -1.9716359264552648e+02 1.5241610776157503e+02 0 0 0
2547 1 1 -2.3806861076846913e+03 -1.9698498340627469e+02 1.5186280058897259e+02 0 0 0
2549 1 1 -2.3798263921227303e+03 -1.9802141694336842e+02 1.5287106532421961e+02 0 0 0
2738 1 1 -2.3809630849545806e+03 -1.9800094726621981e+02 1.5200864978865556e+02 0 0 0
2739 1 1 -2.3811152513547227e+03 -1.9758714586112043e+02 1.5287969398366695e+02 0 0 0
2550 1 1 -2.3805326268082126e+03 -1.9863796208306417e+02 1.5269759710451797e+02 0 0 0
2397 1 1 -2.3789701817825771e+03 -1.9703855189493021e+02 1.5297487368202499e+02 0 0 0
2993 1 1 -2.3877374124844096e+03 -1.9618382806971206e+02 1.5221383225265112e+02 0 0 0
2805 1 1 -2.3886832853564692e+03 -1.9608072953808386e+02 1.5267686020491462e+02 0 0 0
2806 1 1 -2.3884261837865961e+03 -1.9514118369958493e+02 1.5234187628259522e+02 0 0 0
2807 1 1 -2.3878413629390147e+03 -1.9541264930625405e+02 1.5299246736904763e+02 0 0 0
2992 1 1 -2.3869995179593011e+03 -1.9631863963985219e+02 1.5289460324974561e+02 0 0 0
2967 1 1 -2.3872234597746919e+03 -1.9495190523829388e+02 1.5206500058378396e+02 0 0 0
2966 1 1 -2.3869354574450390e+03 -1.9438332695525455e+02 1.5275846664368626e+02 0 0 0
2968 1 1 -2.3867830983404860e+03 -1.9570213528563866e+02 1.5178326445765271e+02 0 0 0
2809 1 1 -2.3881040293429728e+03 -1.9433517331875109e+02 1.5282760468836125e+02 0 0 0
2511 1 1 -2.3860957600499405e+03 -1.9662405483118911e+02 1.5154525492305569e+02 0 0 0
2523 1 1 -2.3851082967484299e+03 -1.9650819959553621e+02 1.5299338813575355e+02 0 0 0
2524 1 1 -2.3846060064484413e+03 -1.9661714776297228e+02 1.5219885526101871e+02 0 0 0
2512 1 1 -2.3859785915295884e+03 -1.9618579991509318e+02 1.5237366790893338e+02 0 0 0
2969 1 1 -2.3866134300497711e+03 -1.9560891247999010e+02 1.5079063070824475e+02 0 0 0
2970 1 1 -2.3858277800509377e+03 -1.9558907271773938e+02 1.5130435438317755e+02 0 0 0
2990 1 1 -2.3860545314811766e+03 -1.9507141283781135e+02 1.5238254185260976e+02 0 0 0
2991 1 1 -2.3866160201773046e+03 -1.9544784601810068e+02 1.5311073927753611e+02 0 0 0
2962 1 1 -2.3853848136713514e+03 -1.9544296838514273e+02 1.5311248245395458e+02 0 0 0
2989 1 1 -2.3864384515005472e+03 -1.9461891415720962e+02 1.5156288682343012e+02 0 0 0
2508 1 1 -2.3850216684809047e+03 -1.9554219301915805e+02 1.5208053846489932e+02 0 0 0
2963 1 1 -2.3848518778978496e+03 -1.9467372384119787e+02 1.5307924430965542e+02 0 0 0
2971 1 1 -2.3853777939281817e+03 -1.9479968849278387e+02 1.5132296140915938e+02 0 0 0
2510 1 1 -2.3851600878054551e+03 -1.9639378576412486e+02 1.5130247138484168e+02 0 0 0
2509 1 1 -2.3845454232354668e+03 -1.9568460904859882e+02 1.5124730607803426e+02 0 0 0
2507 1 1 -2.3844505687730584e+03 -1.9481440755626210e+02 1.5195139815568800e+02 0 0 0
2502 1 1 -2.3843643092812285e+03 -1.9570940813781118e+02 1.5301671643167407e+02 0 0 0
2964 1 1 -2.3853758789074632e+03 -1.9422729650916335e+02 1.5244934248581905e+02 0 0 0
2972 1 1 -2.3851444973132775e+03 -1.9514660184300399e+02 1.5051601272056675e+02 0 0 0
2973 1 1 -2.3843731230869571e+03 -1.9470932319480002e+02 1.5090359279526237e+02 0 0 0
2564 1 1 -2.3817068515472515e+03 -1.9645676524517074e+02 1.5313309661948065e+02 0 0 0
2503 1 1 -2.3839903660155314e+03 -1.9575267094491610e+02 1.5215237882191678e+02 0 0 0
2541 1 1 -2.3837542029718975e+03 -1.9662495157382244e+02 1.5131940036728349e+02 0 0 0
2505 1 1 -2.3829653702810392e+03 -1.9514811183870700e+02 1.5232345095846685e+02 0 0 0
2974 1 1 -2.3835847109557935e+03 -1.9514626512616283e+02 1.5130815204374358e+02 0 0 0
2506 1 1 -2.3837776922218222e+03 -1.9480486517804903e+02 1.5265135344588441e+02 0 0 0
2504 1 1 -2.3833568624419563e+03 -1.9584715941898978e+02 1.5284867758451824e+02 0 0 0
2542 1 1 -2.3828765196110953e+03 -1.9658916254152919e+02 1.5091325925399886e+02 0 0 0
2543 1 1 -2.3829985019905657e+03 -1.9602573779444609e+02 1.5174437981000560e+02 0 0 0
2975 1 2 -2.3826629489435859e+03 -1.9506969815532170e+02 1.5129404468327604e+02 0 0 0
2565 1 1 -2.3823898375807826e+03 -1.9623801396845701e+02 1.5250901587181406e+02 0 0 0
2544 1 1 -2.3820698071893394e+03 -1.9612479613652187e+02 1.5146109029270414e+02 0 0 0
2403 1 2 -2.3817897331438930e+03 -1.9521639168537672e+02 1.5205028695210487e+02 0 0 0
2568 1 2 -2.3821209960289261e+03 -1.9460847430967416e+02 1.5303442697187842e+02 0 0 0
2979 1 2 -2.3832258067522012e+03 -1.9423662603683479e+02 1.5192290553846522e+02 0 0 0
2976 1 2 -2.3819689758656818e+03 -1.9432348629725240e+02 1.5141477922025231e+02 0 0 0
2570 1 2 -2.3832106585077640e+03 -1.9401278980961891e+02 1.5312175812308763e+02 0 0 0
2567 1 2 -2.3815480097865102e+03 -1.9538781371783028e+02 1.5308363214698065e+02 0 0 0
2563 1 1 -2.3807686025239846e+03 -1.9655018879078526e+02 1.5286905089416680e+02 0 0 0
2402 1 1 -2.3812246798734704e+03 -1.9593861586180213e+02 1.5211510147556262e+02 0 0 0
2404 1 2 -2.3812797771564487e+03 -1.9519026852843436e+02 1.5125177653163513e+02 0 0 0
2407 1 2 -2.3810475560203281e+03 -1.9464896579069466e+02 1.5242619455777054e+02 0 0 0
2405 1 2 -2.3804278167830312e+03 -1.9512652033881099e+02 1.5158718335482544e+02 0 0 0
2406 1 2 -2.3807614688535173e+03 -1.9413468308847391e+02 1.5163561055393848e+02 0 0 0
2401 1 2 -2.3804264715579311e+03 -1.9560263817022908e+02 1.5251631637376076e+02 0 0 0
2861 1 2 -2.3799476347697300e+03 -1.9456283037296421e+02 1.5244663041199948e+02 0 0 0
2399 1 2 -2.3794000141456090e+03 -1.9552820050654816e+02 1.5214837158280221e+02 0 0 0
2400 1 2 -2.3800081703212309e+03 -1.9619154785706021e+02 1.5187596212797334e+02 0 0 0
2862 1 2 -2.3790987107356095e+03 -1.9425788627736611e+02 1.5223459845252560e+02 0 0 0
2356 1 2 -2.3797151966423171e+03 -1.9627978533163409e+02 1.5309304254619161e+02 0 0 0
2398 1 1 -2.3789257974154179e+03 -1.9633834282104206e+02 1.5228201205607232e+02 0 0 0
191 1 2 -2.3780098215586040e+03 -1.9425276333953713e+02 1.5260971491087980e+02 0 0 0
190 1 2 -2.3772168693683197e+03 -1.9401494758337543e+02 1.5308645138206646e+02 0 0 0
2353 1 2 -2.3787288357093566e+03 -1.9505524278440510e+02 1.5285827944622099e+02 0 0 0
2810 1 1 -2.3880096412354274e+03 -1.9343605968036209e+02 1.5288689749570943e+02 0 0 0
2590 1 2 -2.3877527080525574e+03 -1.9234482963826991e+02 1.5289647280101130e+02 0 0 0
2589 1 2 -2.3869301690903253e+03 -1.9199206784187214e+02 1.5255288583103390e+02 0 0 0
2988 1 2 -2.3868177980217001e+03 -1.9379902283712369e+02 1.5141662414635658e+02 0 0 0
2822 1 2 -2.3876650363446361e+03 -1.9133305976935350e+02 1.5321974016697942e+02 0 0 0
2987 1 2 -2.3871783374934703e+03 -1.9336966225239874e+02 1.5222641828246276e+02 0 0 0
2965 1 1 -2.3861734220107464e+03 -1.9382513398094721e+02 1.5279005585606390e+02 0 0 0
2572 1 1 -2.3841754172252117e+03 -1.9387811822266406e+02 1.5247372494249254e+02 0 0 0
2983 1 1 -2.3857798974034199e+03 -1.9364992551081164e+02 1.5171538979031229e+02 0 0 0
2985 1 2 -2.3855445958080750e+03 -1.9259093218044731e+02 1.5211111031104275e+02 0 0 0
2986 1 2 -2.3864237221089816e+03 -1.9286630151281901e+02 1.5240921518741169e+02 0 0 0
2984 1 2 -2.3859973988682677e+03 -1.9279131231627639e+02 1.5131048686508436e+02 0 0 0
2612 1 2 -2.3852888813716654e+03 -1.9320106729516266e+02 1.5301309087024640e+02 0 0 0
2588 1 2 -2.3863377949397600e+03 -1.9181055507456722e+02 1.5181315784880977e+02 0 0 0
2815 1 2 -2.3857899657471285e+03 -1.9194464513901272e+02 1.5286769174664198e+02 0 0 0
2982 1 1 -2.3848346252628066e+03 -1.9371743489734422e+02 1.5158165033067505e+02 0 0 0
2573 1 2 -2.3844389511367031e+03 -1.9301149775973644e+02 1.5226665098187462e+02 0 0 0
2574 1 2 -2.3846712666514386e+03 -1.9229096107033953e+02 1.5284224536920968e+02 0 0 0
2578 1 2 -2.3847091568960400e+03 -1.9209032520381237e+02 1.5165012617683792e+02 0 0 0
2579 1 2 -2.3853133004535644e+03 -1.9152769292295059e+02 1.5204704943878468e+02 0 0 0
2577 1 1 -2.3841310399820723e+03 -1.9135551116669285e+02 1.5195350994005113e+02 0 0 0
2978 1 2 -2.3824396251355697e+03 -1.9390650623948392e+02 1.5225918615873371e+02 0 0 0
2977 1 2 -2.3825858860001413e+03 -1.9355376745184984e+02 1.5139354521560639e+02 0 0 0
2981 1 2 -2.3839502083548364e+03 -1.9348099715015718e+02 1.5132070648977350e+02 0 0 0
2980 1 2 -2.3833485882212626e+03 -1.9330762325825017e+02 1.5209930177907506e+02 0 0 0
2877 1 2 -2.3835433474010060e+03 -1.9230490031162938e+02 1.5188496622707143e+02 0 0 0
2878 1 2 -2.3829314435771353e+03 -1.9209292390965399e+02 1.5251387048158904e+02 0 0 0
2879 1 2 -2.3824470730685198e+03 -1.9270361968429123e+02 1.5200157640265701e+02 0 0 0
2885 1 2 -2.3818254714678842e+03 -1.9302489752039227e+02 1.5290894005142010e+02 0 0 0
2874 1 2 -2.3817793250062073e+03 -1.9197034257627098e+02 1.5256369345892347e+02 0 0 0
2876 1 1 -2.3831856340135023e+03 -1.9151107789579487e+02 1.5145446910544194e+02 0 0 0
2886 1 2 -2.3827571296650458e+03 -1.9304856386788092e+02 1.5296756027174669e+02 0 0 0
2887 1 2 -2.3836451444260142e+03 -1.9276371365232782e+02 1.5296210268394103e+02 0 0 0
2881 1 2 -2.3817905210062809e+03 -1.9297214359001197e+02 1.5100695670499726e+02 0 0 0
2576 1 2 -2.3838803707764787e+03 -1.9151868392871302e+02 1.5290159598072319e+02 0 0 0
2880 1 2 -2.3826920830633476e+03 -1.9249987560582164e+02 1.5108413889900322e+02 0 0 0
2875 1 2 -2.3822094093309452e+03 -1.9164720640839980e+02 1.5178823833028912e+02 0 0 0
2863 1 2 -2.3798073651114628e+03 -1.9362668895818916e+02 1.5182513166370552e+02 0 0 0
2860 1 2 -2.3804467600866328e+03 -1.9372826553149929e+02 1.5270403793765610e+02 0 0 0
2859 1 2 -2.3812656231846099e+03 -1.9385917437240695e+02 1.5314212950234548e+02 0 0 0
2884 1 2 -2.3814834619739195e+03 -1.9340409231172646e+02 1.5208117396315043e+02 0 0 0
2883 1 2 -2.3807512250956843e+03 -1.9311173064729522e+02 1.5150565781329701e+02 0 0 0
2882 1 2 -2.3813730868104585e+03 -1.9241568453550758e+02 1.5173930859784772e+02 0 0 0
1184 1 2 -2.3802555361657114e+03 -1.9174337681108670e+02 1.5164605178859114e+02 0 0 0
1183 1 2 -2.3798746459257986e+03 -1.9221538806981093e+02 1.5238496280999732e+02 0 0 0
2873 1 2 -2.3808533067120115e+03 -1.9170255943354363e+02 1.5257535818493210e+02 0 0 0
2868 1 2 -2.3807864664387939e+03 -1.9274311453165021e+02 1.5266415823842775e+02 0 0 0
2864 1 2 -2.3794517170247937e+03 -1.9332420005642263e+02 1.5263303053675455e+02 0 0 0
2865 1 2 -2.3792387036545274e+03 -1.9260321093200176e+02 1.5317070744285439e+02 0 0 0
1180 1 2 -2.3792090645157223e+03 -1.9151379050562514e+02 1.5297287433541354e+02 0 0 0
192 1 2 -2.3787016802620960e+03 -1.9385654455728726e+02 1.5317241655433565e+02 0 0 0
1182 1 2 -2.3789490122149255e+03 -1.9237860835508195e+02 1.5211787724022560e+02 0 0 0
1181 1 2 -2.3784296885035033e+03 -1.9203166321743848e+02 1.5285130145798604e+02 0 0 0
193 1 2 -2.3784226659618312e+03 -1.9332752443299000e+02 1.5237238571424052e+02 0 0 0
194 1 2 -2.3776203899988509e+03 -1.9276100726246804e+02 1.5268337195953467e+02 0 0 0
2585 1 2 -2.3872868980629000e+03 -1.9107704248702191e+02 1.5217674047577933e+02 0 0 0
2584 1 2 -2.3869431869359023e+03 -1.9026874060360231e+02 1.5256031647916907e+02 0 0 0
2583 1 2 -2.3875251848027997e+03 -1.8958940318061357e+02 1.5220031414153488e+02 0 0 0
1831 1 2 -2.3872629565748662e+03 -1.8919692078225978e+02 1.5318500193784391e+02 0 0 0
2582 1 2 -2.3866361577927873e+03 -1.8954107691494883e+02 1.5175455019970698e+02 0 0 0
2586 1 2 -2.3866925946847155e+03 -1.9073174967619832e+02 1.5157233365811692e+02 0 0 0
2823 1 2 -2.3879854905459320e+03 -1.9049255523968068e+02 1.5282660242700453e+02 0 0 0
2587 1 2 -2.3861731910775120e+03 -1.9102847088307610e+02 1.5232430170458764e+02 0 0 0
2580 1 2 -2.3855775897844155e+03 -1.9085448977158856e+02 1.5145716755494871e+02 0 0 0
2238 1 2 -2.3849450507565452e+03 -1.9124034401568693e+02 1.5309224731794981e+02 0 0 0
2581 1 2 -2.3857643424387406e+03 -1.8994854740910603e+02 1.5164788471625317e+02 0 0 0
2826 1 2 -2.3859116437825778e+03 -1.9006617251258905e+02 1.5281698801167775e+02 0 0 0
2827 1 2 -2.3852202607408999e+03 -1.9049587958038725e+02 1.5236703932241090e+02 0 0 0
2829 1 2 -2.3843705228462750e+03 -1.8927033640113453e+02 1.5263813671164226e+02 0 0 0
2830 1 2 -2.3852237054128086e+03 -1.8930137653277868e+02 1.5297232481353257e+02 0 0 0
2228 1 1 -2.3857038730361528e+03 -1.8895600608174294e+02 1.5211414218401700e+02 0 0 0
2229 1 2 -2.3863335174782042e+03 -1.8908102503752497e+02 1.5276899304804505e+02 0 0 0
2828 1 2 -2.3847094007697851e+03 -1.8983727864531454e+02 1.5195508209334398e+02 0 0 0
2832 1 2 -2.3840563638619760e+03 -1.9041136109927859e+02 1.5268193931952942e+02 0 0 0
2833 1 2 -2.3830723604583354e+03 -1.9065161065253884e+02 1.5262490034810281e+02 0 0 0
2094 1 2 -2.3822995718173779e+03 -1.8983770368833677e+02 1.5278343970480142e+02 0 0 0
2460 1 1 -2.3832616868166506e+03 -1.8954592024160416e+02 1.5232389034787099e+02 0 0 0
2834 1 2 -2.3824106368731186e+03 -1.9125334698016493e+02 1.5301414534988606e+02 0 0 0
1186 1 2 -2.3816455128497209e+03 -1.9089144830644017e+02 1.5241320841189079e+02 0 0 0
2092 1 2 -2.3818543677358807e+03 -1.8895633793593370e+02 1.5220625481035674e+02 0 0 0
2461 1 1 -2.3828004254089851e+03 -1.8883026713435791e+02 1.5278962584305788e+02 0 0 0
1185 1 2 -2.3810648597984969e+03 -1.9120403935449073e+02 1.5172678538075567e+02 0 0 0
1187 1 2 -2.3808943589464743e+03 -1.9056722521934955e+02 1.5292787374205361e+02 0 0 0
2093 1 2 -2.3814379790957787e+03 -1.8986960855014135e+02 1.5231382016908765e+02 0 0 0
1189 1 2 -2.3800767627211299e+03 -1.9099612748723106e+02 1.5238863692580381e+02 0 0 0
2090 1 2 -2.3806643037779504e+03 -1.8917413905361181e+02 1.5288978726398980e+02 0 0 0
1190 1 2 -2.3793335756504644e+03 -1.9109800241370877e+02 1.5182372271705401e+02 0 0 0
1188 1 2 -2.3803263670110555e+03 -1.9013201855889361e+02 1.5233343306424618e+02 0 0 0
1191 1 2 -2.3789910184566015e+03 -1.9053434359561098e+02 1.5252901392117744e+02 0 0 0
1691 1 2 -2.3794857897416105e+03 -1.8963268816400182e+02 1.5296833330124608e+02 0 0 0
1192 1 2 -2.3781106847236501e+03 -1.9082449494334799e+02 1.5286287271125386e+02 0 0 0
2226 1 2 -2.3848671629268729e+03 -1.8827632843313725e+02 1.5255264831248329e+02 0 0 0
2227 1 2 -2.3857688784911170e+03 -1.8821883404596539e+02 1.5277205307103321e+02 0 0 0
2452 1 1 -2.3835148228444241e+03 -1.8718370379359612e+02 1.5317409281699810e+02 0 0 0
2091 1 1 -2.3811402955363474e+03 -1.8840024878857855e+02 1.5247490502267709e+02 0 0 0
3848 1 1 -2.3866561931154538e+03 -2.0279920199345622e+02 1.5511351296618312e+02 0 0 0
3838 1 1 -2.3874216920554181e+03 -2.0237375719432282e+02 1.5592025766991756e+02 0 0 0
3849 1 1 -2.3857893821649027e+03 -2.0293878876025764e+02 1.5553606235668411e+02 0 0 0
3850 1 1 -2.3853020750499804e+03 -2.0276165790919794e+02 1.5479266090776559e+02 0 0 0
3851 1 1 -2.3844210459203709e+03 -2.0236348781438014e+02 1.5493724982211947e+02 0 0 0
3509 1 1 -2.3847272368894073e+03 -2.0292724211042537e+02 1.5576259435031548e+02 0 0 0
3508 1 1 -2.3850700419116520e+03 -2.0378953909218220e+02 1.5605120681711674e+02 0 0 0
3510 1 1 -2.3841177795696576e+03 -2.0364654868998579e+02 1.5558036901202649e+02 0 0 0
3511 1 1 -2.3837679144900912e+03 -2.0331843024669584e+02 1.5474389236480582e+02 0 0 0
3852 1 1 -2.3840204857402628e+03 -2.0228113148560814e+02 1.5407127843958378e+02 0 0 0
3512 1 1 -2.3828921337729130e+03 -2.0337597217524430e+02 1.5437983853516221e+02 0 0 0
3910 1 1 -2.3830411585141969e+03 -2.0324968324380930e+02 1.5554093441905599e+02 0 0 0
3513 1 1 -2.3831300244478912e+03 -2.0241004618887686e+02 1.5470360685879723e+02 0 0 0
3898 1 1 -2.3836429010099837e+03 -2.0229185494965481e+02 1.5559453796563503e+02 0 0 0
3909 1 1 -2.3830108754619296e+03 -2.0413889016656665e+02 1.5509094595492087e+02 0 0 0
3899 1 1 -2.3826308488827553e+03 -2.0225316337174692e+02 1.5569581305156359e+02 0 0 0
3908 1 1 -2.3820368880907249e+03 -2.0395789835081828e+02 1.5497840065524505e+02 0 0 0
3900 1 1 -2.3821359002826766e+03 -2.0251952074009779e+02 1.5485238985661317e+02 0 0 0
3514 1 1 -2.3826447748841156e+03 -2.0244626134185299e+02 1.5387973586818146e+02 0 0 0
3907 1 1 -2.3815732327350597e+03 -2.0336148552943834e+02 1.5445130380123467e+02 0 0 0
3540 1 1 -2.3822509652427461e+03 -2.0408830454101030e+02 1.5605575112381615e+02 0 0 0
3538 1 1 -2.3818048656192177e+03 -2.0317787875029890e+02 1.5574675040403579e+02 0 0 0
3901 1 1 -2.3812708755083072e+03 -2.0224025011064145e+02 1.5452859755862028e+02 0 0 0
3537 1 1 -2.3813869889799480e+03 -2.0230142464838949e+02 1.5565029963569526e+02 0 0 0
3904 1 1 -2.3802098317221348e+03 -2.0220989902496444e+02 1.5552536829127430e+02 0 0 0
3906 1 1 -2.3808903252861005e+03 -2.0329025140500119e+02 1.5512283930623855e+02 0 0 0
3902 1 1 -2.3803473020851993e+03 -2.0204592146174073e+02 1.5438435825022370e+02 0 0 0
3905 1 1 -2.3805891338184119e+03 -2.0300817376484295e+02 1.5596076868245092e+02 0 0 0
3972 1 1 -2.3791677588718430e+03 -2.0201920014615447e+02 1.5593826379960908e+02 0 0 0
3837 1 1 -2.3880218430255331e+03 -2.0165028448927049e+02 1.5583893082798039e+02 0 0 0
2764 1 1 -2.3876059672641513e+03 -2.0003423874863537e+02 1.5466583130700172e+02 0 0 0
2765 1 1 -2.3878018911782665e+03 -2.0066716466667691e+02 1.5394026048230481e+02 0 0 0
2763 1 1 -2.3884066316293606e+03 -1.9979866405004745e+02 1.5415423616510091e+02 0 0 0
3844 1 1 -2.3884434656811113e+03 -2.0066725417028874e+02 1.5496319619028785e+02 0 0 0
3843 1 1 -2.3877720667446110e+03 -2.0056883128323418e+02 1.5567693867233623e+02 0 0 0
2773 1 1 -2.3882308042856994e+03 -1.9950745880021316e+02 1.5534975071627105e+02 0 0 0
2774 1 1 -2.3891058567387695e+03 -1.9967319848400788e+02 1.5521024892013702e+02 0 0 0
3845 1 1 -2.3877221309541223e+03 -2.0130429358035701e+02 1.5489613629181056e+02 0 0 0
3836 1 1 -2.3871215828648706e+03 -2.0131557775141209e+02 1.5595609257994909e+02 0 0 0
2771 1 1 -2.3871072210392463e+03 -1.9970749109686267e+02 1.5576352406381244e+02 0 0 0
3846 1 1 -2.3869096483152298e+03 -2.0171125016869075e+02 1.5459537168442259e+02 0 0 0
2766 1 1 -2.3869085588983867e+03 -2.0072768474055036e+02 1.5424708121945054e+02 0 0 0
2767 1 1 -2.3867638927082644e+03 -2.0057585601556386e+02 1.5520035183900413e+02 0 0 0
2711 1 1 -2.3867256742696063e+03 -1.9953953736565629e+02 1.5447274601032868e+02 0 0 0
2717 1 1 -2.3852716283008799e+03 -2.0185281586776509e+02 1.5371164924123394e+02 0 0 0
2751 1 1 -2.3845644825178392e+03 -2.0047104756472285e+02 1.5332029394975009e+02 0 0 0
2749 1 1 -2.3844282420657842e+03 -1.9934468189358694e+02 1.5335065887290668e+02 0 0 0
2715 1 1 -2.3859391406060959e+03 -2.0199274589030725e+02 1.5449253243466137e+02 0 0 0
3847 1 1 -2.3864591573725770e+03 -2.0196042028245637e+02 1.5549221157683655e+02 0 0 0
2758 1 1 -2.3862046351937570e+03 -2.0143245054351033e+02 1.5360149132462195e+02 0 0 0
2755 1 1 -2.3860454391481312e+03 -1.9990134205499422e+02 1.5376112682708811e+02 0 0 0
2757 1 1 -2.3854563453625751e+03 -2.0078336549201890e+02 1.5382316766940869e+02 0 0 0
2768 1 1 -2.3860997197593879e+03 -2.0088554964368853e+02 1.5577849948634616e+02 0 0 0
2712 1 1 -2.3859343877716051e+03 -1.9992895379779287e+02 1.5486610707637664e+02 0 0 0
2769 1 1 -2.3861371009521567e+03 -1.9996326711333137e+02 1.5586267731277346e+02 0 0 0
2714 1 1 -2.3860143014469704e+03 -2.0106049792559097e+02 1.5472689851235691e+02 0 0 0
3495 1 1 -2.3854388744206040e+03 -2.0188625824832786e+02 1.5556257567846657e+02 0 0 0
2713 1 1 -2.3853373288261423e+03 -2.0060512461816748e+02 1.5507061939802139e+02 0 0 0
2716 1 1 -2.3850880155931045e+03 -2.0146475083482912e+02 1.5450445860631703e+02 0 0 0
3790 1 1 -2.3850255144335306e+03 -2.0013482543801248e+02 1.5602705564496898e+02 0 0 0
2756 1 1 -2.3851314045853783e+03 -1.9996390103703760e+02 1.5407439676876581e+02 0 0 0
3854 1 1 -2.3843587440854021e+03 -2.0060511861364614e+02 1.5451983712792227e+02 0 0 0
3494 1 1 -2.3846547361988441e+03 -2.0133400062720017e+02 1.5553398808697068e+02 0 0 0
3783 1 1 -2.3847743176913764e+03 -1.9974203951601106e+02 1.5502218399923487e+02 0 0 0
3853 1 1 -2.3843127237098029e+03 -2.0133651074729156e+02 1.5387751534168129e+02 0 0 0
3857 1 1 -2.3832995009643569e+03 -1.9957340300443391e+02 1.5325065956041365e+02 0 0 0
3856 1 1 -2.3834308373801273e+03 -2.0049065040466527e+02 1.5357554833795291e+02 0 0 0
3855 1 1 -2.3839720481296113e+03 -1.9990064867979797e+02 1.5407705427464120e+02 0 0 0
3893 1 1 -2.3837188792903044e+03 -2.0145977014557798e+02 1.5490789627306145e+02 0 0 0
3891 1 1 -2.3839443323017031e+03 -2.0051460790162670e+02 1.5550074126751289e+02 0 0 0
3892 1 1 -2.3833234158531382e+03 -2.0066203338735906e+02 1.5478892388398407e+02 0 0 0
3894 1 1 -2.3832780067630315e+03 -2.0150041931279250e+02 1.5402497299041497e+02 0 0 0
3896 1 1 -2.3828804302885533e+03 -2.0130014264443534e+02 1.5548543123377269e+02 0 0 0
3895 1 1 -2.3825169323479790e+03 -2.0157295684376174e+02 1.5466790743088441e+02 0 0 0
3531 1 1 -2.3828204733874804e+03 -1.9980070491386823e+02 1.5420598177344144e+02 0 0 0
3785 1 1 -2.3837345485010392e+03 -1.9964836245899485e+02 1.5503766380691081e+02 0 0 0
3786 1 1 -2.3828683601897046e+03 -1.9987636171072785e+02 1.5527888381091449e+02 0 0 0
3532 1 1 -2.3823479845026354e+03 -2.0065097254641043e+02 1.5400635526007292e+02 0 0 0
3533 1 1 -2.3822151390995068e+03 -2.0059225526859299e+02 1.5497682440170124e+02 0 0 0
3536 1 1 -2.3817711633011368e+03 -2.0149285017769225e+02 1.5546029852141456e+02 0 0 0
3515 1 1 -2.3820173541977274e+03 -2.0173277913662562e+02 1.5366121310290211e+02 0 0 0
3521 1 1 -2.3820715121486655e+03 -1.9947334653823052e+02 1.5346449616634564e+02 0 0 0
3528 1 1 -2.3817074594950186e+03 -1.9963483839384637e+02 1.5531633928014219e+02 0 0 0
3534 1 1 -2.3822134949623796e+03 -2.0043003988128797e+02 1.5591803091568357e+02 0 0 0
3903 1 1 -2.3807848431064867e+03 -2.0154540357261484e+02 1.5509675952599139e+02 0 0 0
3520 1 1 -2.3814644301128351e+03 -2.0014254132983302e+02 1.5383013049701873e+02 0 0 0
3867 1 1 -2.3814991074618993e+03 -2.0108111315073495e+02 1.5435136575262149e+02 0 0 0
3866 1 1 -2.3808492441711869e+03 -2.0045385528816266e+02 1.5472191420773024e+02 0 0 0
3865 1 1 -2.3804846804586305e+03 -2.0021383839514067e+02 1.5387910938658075e+02 0 0 0
3535 1 1 -2.3812976927927439e+03 -2.0068286517598165e+02 1.5573111448131681e+02 0 0 0
3868 1 1 -2.3807491130109643e+03 -2.0127856246557295e+02 1.5382581753688268e+02 0 0 0
3872 1 1 -2.3806269487579125e+03 -1.9986452818391115e+02 1.5559032215479783e+02 0 0 0
3869 1 1 -2.3800449321866195e+03 -2.0104060900725727e+02 1.5440279675705281e+02 0 0 0
3871 1 1 -2.3799459543527532e+03 -2.0042826986209403e+02 1.5535473881877400e+02 0 0 0
3864 1 1 -2.3801985780198270e+03 -1.9936996142011606e+02 1.5368828770211184e+02 0 0 0
3870 1 1 -2.3796629669142985e+03 -2.0140444996532551e+02 1.5514152687769536e+02 0 0 0
2392 1 1 -2.3799857793191941e+03 -1.9965957563323889e+02 1.5467408678537461e+02 0 0 0
2387 1 1 -2.3790887121620140e+03 -2.0040002593895650e+02 1.5460863083595362e+02 0 0 0
2388 1 1 -2.3793825175232337e+03 -2.0004383938319310e+02 1.5378546616829087e+02 0 0 0
3526 1 1 -2.3810602216693842e+03 -1.9945147406835801e+02 1.5454405994843194e+02 0 0 0
3879 1 1 -2.3790296540011946e+03 -1.9975905036851006e+02 1.5539080504599644e+02 0 0 0
2386 1 1 -2.3781977357347205e+03 -2.0017579021359077e+02 1.5489807969021595e+02 0 0 0
2385 1 1 -2.3782322027890277e+03 -1.9932621015891340e+02 1.5454580466795929e+02 0 0 0
2384 1 1 -2.3779981158583705e+03 -1.9933236880349679e+02 1.5549407720452805e+02 0 0 0
3877 1 1 -2.3788519172103688e+03 -2.0092590460534842e+02 1.5549167450243843e+02 0 0 0
3226 1 1 -2.3904734589979857e+03 -1.9860224890170798e+02 1.5584469762394176e+02 0 0 0
2801 1 1 -2.3900673623878502e+03 -1.9723842335333737e+02 1.5515821061985631e+02 0 0 0
2777 1 1 -2.3897975755125171e+03 -1.9884518077969722e+02 1.5484581703245732e+02 0 0 0
2802 1 1 -2.3896737859469322e+03 -1.9682150865499770e+02 1.5439689039042705e+02 0 0 0
2776 1 1 -2.3895044107722824e+03 -1.9816635700821666e+02 1.5538749499833213e+02 0 0 0
2775 1 1 -2.3892943972288508e+03 -1.9895695897100006e+02 1.5583385102492934e+02 0 0 0
2708 1 1 -2.3881618922987773e+03 -1.9835581263202741e+02 1.5325963067305636e+02 0 0 0
2705 1 1 -2.3891105613236414e+03 -1.9726250811285129e+02 1.5348145306557285e+02 0 0 0