LAMMPS data file via write_data, version 16 Mar 2018, timestep = 0

4000 atoms
2 atom types
4012 bonds
2 bond types

-2.3926706867373032e+03 -2.3730528543999462e+03 xlo xhi
-2.0524216823849028e+02 -1.8324341428690857e+02 ylo yhi
1.5121445924234928e+02 1.6928123223389974e+02 zlo zhi

Masses

1 1
2 1

Atoms # bond

3918 1 1 -2.3851360743351925e+03 -1.9976190443791447e+02 1.5292613080687954e+02 0 0 0
3917 1 1 -2.3851857019057052e+03 -2.0067305011120507e+02 1.5350996371746089e+02 0 0 0
3780 1 1 -2.3859861585600588e+03 -1.9991735132209064e+02 1.5353872847329848e+02 0 0 0
3922 1 1 -2.3841809557539577e+03 -2.0016989829809634e+02 1.5294581204920874e+02 0 0 0
3880 1 1 -2.3832895185920252e+03 -2.0196762430476483e+02 1.5336019198562045e+02 0 0 0
3924 1 1 -2.3842625050517427e+03 -2.0123127429630233e+02 1.5362788339193071e+02 0 0 0
3923 1 1 -2.3836186878122130e+03 -2.0120595428324228e+02 1.5277912152227344e+02 0 0 0
3927 1 1 -2.3824970367167184e+03 -2.0079093624864169e+02 1.5308850034031934e+02 0 0 0
3921 1 1 -2.3831864655474710e+03 -1.9997963985377245e+02 1.5320636750385924e+02 0 0 0
3920 1 1 -2.3834982586741580e+03 -2.0004765523894201e+02 1.5220159193102842e+02 0 0 0
3933 1 1 -2.3824962752854840e+03 -1.9974746324862812e+02 1.5232177760491336e+02 0 0 0
3879 1 1 -2.3823200444437202e+03 -2.0164028003522188e+02 1.5373294911806238e+02 0 0 0
3932 1 1 -2.3821910356086159e+03 -1.9976072274915725e+02 1.5346507769113802e+02 0 0 0
2751 1 1 -2.3814591297030620e+03 -2.0004360246949182e+02 1.5271022959774723e+02 0 0 0
2759 1 1 -2.3804353087487129e+03 -2.0045314795953337e+02 1.5326967397623588e+02 0 0 0
2752 1 1 -2.3814174412260681e+03 -2.0103611564534231e+02 1.5334941672825491e+02 0 0 0
2761 1 1 -2.3794643788195581e+03 -1.9977459171555481e+02 1.5295106924633731e+02 0 0 0
2760 1 1 -2.3794459735442260e+03 -2.0071380960499934e+02 1.5357336548193260e+02 0 0 0
2541 1 1 -2.3785061728433907e+03 -2.0009431822153886e+02 1.5331947873635355e+02 0 0 0
3325 1 1 -2.3870705083900334e+03 -1.9844731169472036e+02 1.5328592390607281e+02 0 0 0
3323 1 1 -2.3870525556370972e+03 -1.9700053964439215e+02 1.5272689454805698e+02 0 0 0
3324 1 1 -2.3864019987206284e+03 -1.9798998049348145e+02 1.5247109769136000e+02 0 0 0
3779 1 1 -2.3861460170951341e+03 -1.9908470317597425e+02 1.5291665179905834e+02 0 0 0
3778 1 1 -2.3853848730792829e+03 -1.9866270439249956e+02 1.5228533508441831e+02 0 0 0
3777 1 1 -2.3851792378115802e+03 -1.9771768083243040e+02 1.5290375975007382e+02 0 0 0
3914 1 1 -2.3850926524619717e+03 -1.9884152070608093e+02 1.5340060561265076e+02 0 0 0
3913 1 1 -2.3858351162041658e+03 -1.9817536450815888e+02 1.5361701856676333e+02 0 0 0
3774 1 2 -2.3860695570245916e+03 -1.9718669823314875e+02 1.5302398373655021e+02 0 0 0
3919 1 1 -2.3843663593321712e+03 -1.9929155578430482e+02 1.5217870484613962e+02 0 0 0
3322 1 1 -2.3867781789676446e+03 -1.9744592307219793e+02 1.5374201020654417e+02 0 0 0
3935 1 1 -2.3843412154101356e+03 -1.9840545268785002e+02 1.5285877594763767e+02 0 0 0
2021 1 1 -2.3841801853831244e+03 -1.9729673716103278e+02 1.5206968657320306e+02 0 0 0
3915 1 1 -2.3840425240241743e+03 -1.9934013435167844e+02 1.5353666305219929e+02 0 0 0
3934 1 1 -2.3834339862281336e+03 -1.9912094425963616e+02 1.5267166839643065e+02 0 0 0
3936 1 1 -2.3837083111125585e+03 -1.9830387434089963e+02 1.5196524975074735e+02 0 0 0
3943 1 1 -2.3825567492612745e+03 -1.9874406296726747e+02 1.5187040446640097e+02 0 0 0
3938 1 1 -2.3823381533433972e+03 -1.9875247103689853e+02 1.5299614810142103e+02 0 0 0
3944 1 1 -2.3823853239810505e+03 -1.9775959772442610e+02 1.5241414744063636e+02 0 0 0
3937 1 1 -2.3831398691252630e+03 -1.9815835595600745e+02 1.5309679502995314e+02 0 0 0
3952 1 1 -2.3840541496646633e+03 -1.9752325197106398e+02 1.5318299994259695e+02 0 0 0
3945 1 1 -2.3821664161804788e+03 -1.9777855595667984e+02 1.5348403865629521e+02 0 0 0
3951 1 2 -2.3832731499856509e+03 -1.9719255125015243e+02 1.5262850142584898e+02 0 0 0
2020 1 1 -2.3831710482257063e+03 -1.9744609062045697e+02 1.5159601390620170e+02 0 0 0
3950 1 2 -2.3829726213799886e+03 -1.9707253349074279e+02 1.5355801888448988e+02 0 0 0
3942 1 1 -2.3817040721180874e+03 -1.9824621288109827e+02 1.5146392058929769e+02 0 0 0
3939 1 1 -2.3816328420962418e+03 -1.9911395311773285e+02 1.5218803250837752e+02 0 0 0
2733 1 1 -2.3802105262581767e+03 -1.9938450366963738e+02 1.5377102121697240e+02 0 0 0
2734 1 1 -2.3804692256956878e+03 -1.9930209008996732e+02 1.5267318457076701e+02 0 0 0
3941 1 1 -2.3812195333255131e+03 -1.9742888815497099e+02 1.5200716906391486e+02 0 0 0
3940 1 1 -2.3814219304478920e+03 -1.9814952202921563e+02 1.5279029473367950e+02 0 0 0
2735 1 1 -2.3806307667309056e+03 -1.9824108777337401e+02 1.5207813069230224e+02 0 0 0
2736 1 1 -2.3801838281470400e+03 -1.9742934241274432e+02 1.5258850249416642e+02 0 0 0
2732 1 1 -2.3804374453806681e+03 -1.9843468676590237e+02 1.5320542003625340e+02 0 0 0
2731 1 1 -2.3795467273878694e+03 -1.9861751576202104e+02 1.5246429826577807e+02 0 0 0
2730 1 1 -2.3791755584574203e+03 -1.9787702017297926e+02 1.5314013265873959e+02 0 0 0
2737 1 1 -2.3811473281628005e+03 -1.9725590140313523e+02 1.5321041677803751e+02 0 0 0
2750 1 1 -2.3813219808076065e+03 -1.9912299108726896e+02 1.5329921853662270e+02 0 0 0
2762 1 1 -2.3793125049374962e+03 -1.9886898635072248e+02 1.5345989541011750e+02 0 0 0
2729 1 1 -2.3800550182562429e+03 -1.9746304998657470e+02 1.5374697670638881e+02 0 0 0
2542 1 1 -2.3785331942558478e+03 -1.9908253244154892e+02 1.5277072006331360e+02 0 0 0
2543 1 1 -2.3782480623064930e+03 -1.9825786074523154e+02 1.5356530441873318e+02 0 0 0
2544 1 1 -2.3774028076133277e+03 -1.9754611793576379e+02 1.5348124593334305e+02 0 0 0
3766 1 2 -2.3880223989917281e+03 -1.9460784658176641e+02 1.5347533752129269e+02 0 0 0
3767 1 2 -2.3876335056646681e+03 -1.9549368741380451e+02 1.5354216924049265e+02 0 0 0
3770 1 2 -2.3871384230282338e+03 -1.9527330072412641e+02 1.5240464463185080e+02 0 0 0
3776 1 2 -2.3849026935843513e+03 -1.9689228310758980e+02 1.5320726828387481e+02 0 0 0
2022 1 2 -2.3849640542316165e+03 -1.9675762250264387e+02 1.5196336332010148e+02 0 0 0
3769 1 2 -2.3869481845582495e+03 -1.9454206361735586e+02 1.5292070876573808e+02 0 0 0
3771 1 2 -2.3866089279786142e+03 -1.9595004509660961e+02 1.5291309071969161e+02 0 0 0
3775 1 2 -2.3856042608390289e+03 -1.9640220983866112e+02 1.5280682290073230e+02 0 0 0
2047 1 2 -2.3856333990119419e+03 -1.9540048073195638e+02 1.5340798792330006e+02 0 0 0
2024 1 2 -2.3853305697311744e+03 -1.9551982149425021e+02 1.5237579862944528e+02 0 0 0
2046 1 2 -2.3850044570244841e+03 -1.9468971676147510e+02 1.5332805382534400e+02 0 0 0
2025 1 2 -2.3860129754515897e+03 -1.9484282292433852e+02 1.5239935404629580e+02 0 0 0
2238 1 2 -2.3847509713425811e+03 -1.9462628774026135e+02 1.5176287750934208e+02 0 0 0
2236 1 2 -2.3846382640686952e+03 -1.9575919329878462e+02 1.5317902287026820e+02 0 0 0
2023 1 2 -2.3846518772736813e+03 -1.9584188742632580e+02 1.5181712056443899e+02 0 0 0
3772 1 2 -2.3864581812249830e+03 -1.9641239836084657e+02 1.5370475891634186e+02 0 0 0
3768 1 2 -2.3867144981577121e+03 -1.9513744138118952e+02 1.5360800668540438e+02 0 0 0
2237 1 2 -2.3843341846445569e+03 -1.9508415308749645e+02 1.5253215144139133e+02 0 0 0
2228 1 1 -2.3820425442675360e+03 -1.9685784408541497e+02 1.5283538544075131e+02 0 0 0
2019 1 2 -2.3827010748634857e+03 -1.9667039852051894e+02 1.5190123305288526e+02 0 0 0
2235 1 2 -2.3840517511085095e+03 -1.9630571919683155e+02 1.5262466936943247e+02 0 0 0
2018 1 2 -2.3832375263903145e+03 -1.9598870570148952e+02 1.5138873900040730e+02 0 0 0
2232 1 2 -2.3828371607939425e+03 -1.9615845272785899e+02 1.5293903480009942e+02 0 0 0
2231 1 2 -2.3822679039355080e+03 -1.9565278021880602e+02 1.5240131305696855e+02 0 0 0
2017 1 2 -2.3833661268262363e+03 -1.9567008262435667e+02 1.5223586480417796e+02 0 0 0
2016 1 2 -2.3835910902033793e+03 -1.9485206710217210e+02 1.5172484727904720e+02 0 0 0
2044 1 2 -2.3834160187440334e+03 -1.9453624207071914e+02 1.5289025258549378e+02 0 0 0
2015 1 2 -2.3826287868112045e+03 -1.9509431929020394e+02 1.5152597077107612e+02 0 0 0
2227 1 2 -2.3818281500676544e+03 -1.9595885001547379e+02 1.5326025266346221e+02 0 0 0
2233 1 2 -2.3834906605629890e+03 -1.9559782986299604e+02 1.5327537206465348e+02 0 0 0
2014 1 2 -2.3824506152878116e+03 -1.9466351881617351e+02 1.5240603887469257e+02 0 0 0
2234 1 2 -2.3839258062716235e+03 -1.9646964254122636e+02 1.5352589116807266e+02 0 0 0
2013 1 2 -2.3816421875445999e+03 -1.9461203498857736e+02 1.5191771059282735e+02 0 0 0
2225 1 2 -2.3816191413141855e+03 -1.9482385026717949e+02 1.5305843008180048e+02 0 0 0
2226 1 2 -2.3824462816441046e+03 -1.9523753771989283e+02 1.5340740997906624e+02 0 0 0
2043 1 2 -2.3831794539768812e+03 -1.9433611985156116e+02 1.5375159237079131e+02 0 0 0
2230 1 2 -2.3818714516742598e+03 -1.9587695355846895e+02 1.5158911950309394e+02 0 0 0
2045 1 2 -2.3840990928698543e+03 -1.9486631522833775e+02 1.5360742277217167e+02 0 0 0
2574 1 2 -2.3791308883489146e+03 -1.9683974795086417e+02 1.5364221561390718e+02 0 0 0
2229 1 2 -2.3814312373065409e+03 -1.9639668744068783e+02 1.5227339481905440e+02 0 0 0
2482 1 2 -2.3803010375873778e+03 -1.9606467590429608e+02 1.5244700423129706e+02 0 0 0
2436 1 2 -2.3811145670537639e+03 -1.9546345646409213e+02 1.5240844804760624e+02 0 0 0
2437 1 2 -2.3808434935217670e+03 -1.9551861304655796e+02 1.5328963679237575e+02 0 0 0
2481 1 2 -2.3797682733466627e+03 -1.9529577938285456e+02 1.5269601638512682e+02 0 0 0
2483 1 2 -2.3803543920054094e+03 -1.9649766574626841e+02 1.5326682967743022e+02 0 0 0
2575 1 2 -2.3790823974178356e+03 -1.9621986831161348e+02 1.5291801417172857e+02 0 0 0
2435 1 2 -2.3806520027357310e+03 -1.9465365228056453e+02 1.5247979752461913e+02 0 0 0
2438 1 2 -2.3803536265060193e+03 -1.9476373392663635e+02 1.5351722452560523e+02 0 0 0
2431 1 2 -2.3796541040465104e+03 -1.9432504649640615e+02 1.5207973320689621e+02 0 0 0
2480 1 2 -2.3789333498069177e+03 -1.9515096717462174e+02 1.5313768165377530e+02 0 0 0
2479 1 2 -2.3794120377003865e+03 -1.9432513114874510e+02 1.5317042575236783e+02 0 0 0
2484 1 2 -2.3798328921345460e+03 -1.9573189670885719e+02 1.5362560174800561e+02 0 0 0
2424 1 2 -2.3776324819415413e+03 -1.9470265362079232e+02 1.5349840038801830e+02 0 0 0
2576 1 2 -2.3782463223160703e+03 -1.9627931089711575e+02 1.5334016167471998e+02 0 0 0
3756 1 2 -2.3877165482590972e+03 -1.9351863305167146e+02 1.5325931505347424e+02 0 0 0
358 1 2 -2.3880155441818147e+03 -1.9254056633183453e+02 1.5319500570492826e+02 0 0 0
357 1 2 -2.3876518380031689e+03 -1.9176086585638564e+02 1.5279432015357690e+02 0 0 0
3755 1 2 -2.3871763432108596e+03 -1.9341495152685687e+02 1.5248558043771880e+02 0 0 0
2026 1 2 -2.3853185064561148e+03 -1.9419805160827516e+02 1.5252037855230162e+02 0 0 0
3753 1 2 -2.3860925660156990e+03 -1.9408196400033464e+02 1.5323839373909513e+02 0 0 0
356 1 2 -2.3870498022797888e+03 -1.9200670295399820e+02 1.5354096736613766e+02 0 0 0
3754 1 2 -2.3862375855082500e+03 -1.9327228194286533e+02 1.5269161568170668e+02 0 0 0
2027 1 2 -2.3848947621464135e+03 -1.9364009111552502e+02 1.5322671359380982e+02 0 0 0
2187 1 2 -2.3856568784525443e+03 -1.9183923008841330e+02 1.5212938183824826e+02 0 0 0
2188 1 1 -2.3850653550092916e+03 -1.9249782070985290e+02 1.5189250635631302e+02 0 0 0
2186 1 2 -2.3864505852238603e+03 -1.9186879702645700e+02 1.5265592360313514e+02 0 0 0
2185 1 2 -2.3856324584633403e+03 -1.9180584178607899e+02 1.5319577065369052e+02 0 0 0
2189 1 2 -2.3853287269485627e+03 -1.9276389086783445e+02 1.5283235765620785e+02 0 0 0
2190 1 2 -2.3848951684237213e+03 -1.9249856380992134e+02 1.5358419334141337e+02 0 0 0
2240 1 2 -2.3843551951089066e+03 -1.9361508570032453e+02 1.5152159807199831e+02 0 0 0
2191 1 2 -2.3845670877332277e+03 -1.9199052985980484e+02 1.5283421835810202e+02 0 0 0
3757 1 2 -2.3868181322010255e+03 -1.9328313829350753e+02 1.5361781252515024e+02 0 0 0
2032 1 2 -2.3843366120500968e+03 -1.9159253625093214e+02 1.5172322496805074e+02 0 0 0
2030 1 2 -2.3842690380689637e+03 -1.9302435608605546e+02 1.5256625528529233e+02 0 0 0
2239 1 2 -2.3842477888016347e+03 -1.9409118230125739e+02 1.5233056811765402e+02 0 0 0
2028 1 2 -2.3840465987610464e+03 -1.9384663122321669e+02 1.5344789210802890e+02 0 0 0
2031 1 2 -2.3840009831248590e+03 -1.9246788648699209e+02 1.5180455580215050e+02 0 0 0
2241 1 2 -2.3834900606740466e+03 -1.9326059089087912e+02 1.5121626592316156e+02 0 0 0
2037 1 2 -2.3823091235198181e+03 -1.9374699314899044e+02 1.5303418466270492e+02 0 0 0
2242 1 2 -2.3831448099009872e+03 -1.9391497202141483e+02 1.5180207526236433e+02 0 0 0
2029 1 2 -2.3834617985395789e+03 -1.9349676773612455e+02 1.5275590051216156e+02 0 0 0
2035 1 2 -2.3830090271800959e+03 -1.9273480664521850e+02 1.5193050289419347e+02 0 0 0
2036 1 2 -2.3823209673164197e+03 -1.9288657674399417e+02 1.5261633174978664e+02 0 0 0
1990 1 2 -2.3833562556972115e+03 -1.9238194041501103e+02 1.5293637138412421e+02 0 0 0
1989 1 2 -2.3827111533573961e+03 -1.9172743282976489e+02 1.5254154015928569e+02 0 0 0
2243 1 2 -2.3822031657583643e+03 -1.9361026677991276e+02 1.5177649704955175e+02 0 0 0
2244 1 2 -2.3816327805284200e+03 -1.9279772524241727e+02 1.5167016914374565e+02 0 0 0
2034 1 2 -2.3831535738654570e+03 -1.9186525640186704e+02 1.5150889304632656e+02 0 0 0
1993 1 2 -2.3823928190777465e+03 -1.9242249441197788e+02 1.5349447458881704e+02 0 0 0
1991 1 2 -2.3838986375673644e+03 -1.9271908787189017e+02 1.5360894975401848e+02 0 0 0
1992 1 2 -2.3829388598990558e+03 -1.9319270685422791e+02 1.5362994871188860e+02 0 0 0
2197 1 2 -2.3830596431686345e+03 -1.9150258021356851e+02 1.5351554315534759e+02 0 0 0
2245 1 2 -2.3818597339010080e+03 -1.9187141251745430e+02 1.5190409579614249e+02 0 0 0
1994 1 2 -2.3816904746676241e+03 -1.9205586615334931e+02 1.5295137247556735e+02 0 0 0
2193 1 2 -2.3841129048700245e+03 -1.9153043889993657e+02 1.5359705088771102e+02 0 0 0
2012 1 2 -2.3814633649856351e+03 -1.9386828769642693e+02 1.5249178170277636e+02 0 0 0
2439 1 2 -2.3810672815632179e+03 -1.9418181214315746e+02 1.5344452874817654e+02 0 0 0
2011 1 2 -2.3813220836087226e+03 -1.9311111164226449e+02 1.5301157478051201e+02 0 0 0
2434 1 2 -2.3803159529936643e+03 -1.9382962473844262e+02 1.5282631006913414e+02 0 0 0
2433 1 2 -2.3805489058093490e+03 -1.9296500021035692e+02 1.5235566438296073e+02 0 0 0
2432 1 2 -2.3804186480495241e+03 -1.9381205090117010e+02 1.5182052272884593e+02 0 0 0
2008 1 2 -2.3799737612487183e+03 -1.9193077235656608e+02 1.5269705605412548e+02 0 0 0
2476 1 2 -2.3797306721268542e+03 -1.9290521020617564e+02 1.5314947690880447e+02 0 0 0
2429 1 2 -2.3795821282728234e+03 -1.9250753903187672e+02 1.5186464594046637e+02 0 0 0
2246 1 2 -2.3809444830749153e+03 -1.9194975195211185e+02 1.5206745652125576e+02 0 0 0
2430 1 2 -2.3794309605500680e+03 -1.9337724506067030e+02 1.5215679398063500e+02 0 0 0
2009 1 2 -2.3805547314876139e+03 -1.9230398787088779e+02 1.5328232074599887e+02 0 0 0
2007 1 2 -2.3796219240211749e+03 -1.9181808070243906e+02 1.5357732635923423e+02 0 0 0
2477 1 2 -2.3788988682587328e+03 -1.9338567304724498e+02 1.5311489754520392e+02 0 0 0
2010 1 2 -2.3806896343030098e+03 -1.9321788895194058e+02 1.5368491407896633e+02 0 0 0
2290 1 2 -2.3789339054528609e+03 -1.9224412072770656e+02 1.5294237173270776e+02 0 0 0
2478 1 2 -2.3786138645009719e+03 -1.9419966476040645e+02 1.5263345680779733e+02 0 0 0
2421 1 2 -2.3767810066244656e+03 -1.9406243431895135e+02 1.5370067889901628e+02 0 0 0
2426 1 2 -2.3776744210611878e+03 -1.9368843663419415e+02 1.5269386042238432e+02 0 0 0
2428 1 2 -2.3786537416472879e+03 -1.9237125397872774e+02 1.5197399804997923e+02 0 0 0
2427 1 2 -2.3783680165603378e+03 -1.9330041518708762e+02 1.5210240981822599e+02 0 0 0
2289 1 2 -2.3779817197779712e+03 -1.9261509306670641e+02 1.5280477187329507e+02 0 0 0
2420 1 2 -2.3768472769363548e+03 -1.9316999386851674e+02 1.5334017550986115e+02 0 0 0
2288 1 2 -2.3779633351184834e+03 -1.9165931111312892e+02 1.5301404304552705e+02 0 0 0
2287 1 2 -2.3772152510657447e+03 -1.9209281424914650e+02 1.5349591042430075e+02 0 0 0
2425 1 2 -2.3778588513737382e+03 -1.9372364246830449e+02 1.5360721674052732e+02 0 0 0
309 1 2 -2.3874973693229858e+03 -1.9005498397456802e+02 1.5298682702102582e+02 0 0 0
308 1 2 -2.3878283196543853e+03 -1.9090414493012096e+02 1.5336597950114020e+02 0 0 0
307 1 2 -2.3885138942911244e+03 -1.9021880235393050e+02 1.5337533901767250e+02 0 0 0
310 1 2 -2.3871194172895525e+03 -1.8958510546843999e+02 1.5370317425515782e+02 0 0 0
1975 1 2 -2.3850422723472248e+03 -1.9111983319118210e+02 1.5257962077492635e+02 0 0 0
1973 1 2 -2.3866976298553063e+03 -1.9090744195835288e+02 1.5295742313842499e+02 0 0 0
1974 1 2 -2.3859114381005397e+03 -1.9074242548566372e+02 1.5234557874857472e+02 0 0 0
1972 1 2 -2.3863249138081283e+03 -1.8998808240927698e+02 1.5308401835380286e+02 0 0 0
2183 1 2 -2.3856457045534648e+03 -1.9080006886230197e+02 1.5343407509089548e+02 0 0 0
1976 1 2 -2.3844442902743508e+03 -1.9057689503695792e+02 1.5214522626956435e+02 0 0 0
1985 1 2 -2.3852587000748472e+03 -1.9004861997038495e+02 1.5274708352049439e+02 0 0 0
1983 1 2 -2.3849297374645876e+03 -1.8896142473070196e+02 1.5339541499359441e+02 0 0 0
1971 1 2 -2.3861151133551193e+03 -1.8928330862380744e+02 1.5365495233398016e+02 0 0 0
1982 1 2 -2.3854829479273917e+03 -1.8886428862543548e+02 1.5267254815928118e+02 0 0 0
1981 1 2 -2.3848028688713089e+03 -1.8918196293091682e+02 1.5201249178220382e+02 0 0 0
1984 1 2 -2.3851115450211114e+03 -1.8987675578612181e+02 1.5368612083163401e+02 0 0 0
2194 1 2 -2.3843610520459119e+03 -1.9065550731073961e+02 1.5328777734192315e+02 0 0 0
1986 1 2 -2.3843588075930925e+03 -1.8963392297665814e+02 1.5278121505627502e+02 0 0 0
2192 1 2 -2.3838325259741409e+03 -1.9143568494910033e+02 1.5274546451800265e+02 0 0 0
1827 1 2 -2.3824042868429819e+03 -1.9088693091024126e+02 1.5178803294471297e+02 0 0 0
1977 1 2 -2.3841243635441970e+03 -1.8990578929217040e+02 1.5156429590380182e+02 0 0 0
2033 1 2 -2.3835571582576531e+03 -1.9103384718263320e+02 1.5176686449890622e+02 0 0 0
1978 1 2 -2.3836592713893906e+03 -1.8913182008959427e+02 1.5197137679854399e+02 0 0 0
1988 1 2 -2.3828877575125334e+03 -1.9082837830565791e+02 1.5271549593662314e+02 0 0 0
1987 1 2 -2.3836010735721266e+03 -1.9022509335628126e+02 1.5257923330815160e+02 0 0 0
1860 1 2 -2.3828397413645935e+03 -1.8964630701977990e+02 1.5318220078310898e+02 0 0 0
1826 1 2 -2.3827880994160028e+03 -1.9003322364557459e+02 1.5190703474675735e+02 0 0 0
1825 1 2 -2.3825937577399677e+03 -1.8917421634259600e+02 1.5225335864244423e+02 0 0 0
1848 1 2 -2.3822108964958666e+03 -1.9052003912352185e+02 1.5342928940742362e+02 0 0 0
1849 1 2 -2.3817909850209057e+03 -1.8956577645229845e+02 1.5345248842114731e+02 0 0 0
1821 1 2 -2.3816091836388255e+03 -1.8889054829714382e+02 1.5210541062526903e+02 0 0 0
1859 1 2 -2.3834668541750220e+03 -1.8903625880587262e+02 1.5301369580554572e+02 0 0 0
2196 1 2 -2.3832177641252770e+03 -1.9058408922304039e+02 1.5365129132718303e+02 0 0 0
1996 1 2 -2.3818744087145155e+03 -1.9014037343941251e+02 1.5246270345372398e+02 0 0 0
1995 1 2 -2.3818464028307912e+03 -1.9109534212636225e+02 1.5264019158183734e+02 0 0 0
2195 1 2 -2.3838353357976407e+03 -1.8986886058311694e+02 1.5374075039807244e+02 0 0 0
1828 1 2 -2.3815379060868586e+03 -1.9082719290134713e+02 1.5138774368298630e+02 0 0 0
2247 1 2 -2.3802982310695670e+03 -1.9146645406821708e+02 1.5160682463846533e+02 0 0 0
2248 1 2 -2.3793226108755803e+03 -1.9147228978891138e+02 1.5191550674508488e+02 0 0 0
2250 1 2 -2.3789388776229625e+03 -1.9121954808933370e+02 1.5294840125174665e+02 0 0 0
1998 1 2 -2.3809110786121278e+03 -1.9134694744319637e+02 1.5288361586649751e+02 0 0 0
1829 1 2 -2.3808455271904591e+03 -1.9058517086379450e+02 1.5208495187088820e+02 0 0 0
1830 1 2 -2.3810816268519934e+03 -1.8976844593344185e+02 1.5161632117076687e+02 0 0 0
1833 1 2 -2.3801684475533807e+03 -1.9002494224590646e+02 1.5280747943472875e+02 0 0 0
1834 1 2 -2.3799518439323101e+03 -1.9085420167553306e+02 1.5251141373729823e+02 0 0 0
1831 1 2 -2.3805222183135656e+03 -1.8906729442394547e+02 1.5189270788742942e+02 0 0 0
1832 1 1 -2.3800749136016038e+03 -1.8986705212504219e+02 1.5192370576191479e+02 0 0 0
1820 1 2 -2.3811476826606799e+03 -1.8937993224881220e+02 1.5274358411931482e+02 0 0 0
1997 1 2 -2.3812288989437852e+03 -1.9039808101866248e+02 1.5313009441666614e+02 0 0 0
1836 1 2 -2.3791344360641301e+03 -1.9022963057642747e+02 1.5321492801262906e+02 0 0 0
2006 1 2 -2.3799019370943929e+03 -1.9089039248577078e+02 1.5352689081298880e+02 0 0 0
1838 1 2 -2.3792336487505600e+03 -1.8904330071859999e+02 1.5286668388479168e+02 0 0 0
1819 1 2 -2.3806997659601889e+03 -1.8951782000327742e+02 1.5358244564502328e+02 0 0 0
1839 1 2 -2.3802341695705018e+03 -1.8879710714168462e+02 1.5293258647227094e+02 0 0 0
1837 1 2 -2.3796437583067950e+03 -1.8954223665733420e+02 1.5356402422130290e+02 0 0 0
1835 1 2 -2.3791602425801998e+03 -1.9041547664266301e+02 1.5224724248992425e+02 0 0 0
2249 1 2 -2.3784355040564942e+03 -1.9104066502224390e+02 1.5219725252629547e+02 0 0 0
2251 1 2 -2.3782895804175973e+03 -1.9070763700673641e+02 1.5342310630647688e+02 0 0 0
2252 1 2 -2.3780604351343472e+03 -1.8991919398290614e+02 1.5300171452709785e+02 0 0 0
2256 1 2 -2.3770479124829894e+03 -1.9105846844089726e+02 1.5323287907579584e+02 0 0 0
1761 1 2 -2.3784709400097868e+03 -1.8902195560155695e+02 1.5368623421811992e+02 0 0 0
2253 1 2 -2.3773620191516961e+03 -1.8966823294837658e+02 1.5366845324436835e+02 0 0 0
2255 1 2 -2.3765680440657479e+03 -1.9032214135096706e+02 1.5348592572300913e+02 0 0 0
1875 1 2 -2.3846746249035900e+03 -1.8784267920457810e+02 1.5341018317795067e+02 0 0 0
321 1 2 -2.3856558810007132e+03 -1.8821783206773705e+02 1.5365954275125543e+02 0 0 0
320 1 2 -2.3866173271722805e+03 -1.8833781365775673e+02 1.5366425284027005e+02 0 0 0
1980 1 2 -2.3843769406075189e+03 -1.8852921047352828e+02 1.5249950834145326e+02 0 0 0
1824 1 2 -2.3828715627391266e+03 -1.8869578736015140e+02 1.5150946132832939e+02 0 0 0
1850 1 2 -2.3814866173746154e+03 -1.8865317171944722e+02 1.5361182582288484e+02 0 0 0
1858 1 2 -2.3839307388853267e+03 -1.8860863781197122e+02 1.5370819282877662e+02 0 0 0
1856 1 2 -2.3825158177691842e+03 -1.8855836066085749e+02 1.5332738569992895e+02 0 0 0
1823 1 2 -2.3822307780516858e+03 -1.8811483668861879e+02 1.5188843841123867e+02 0 0 0
1979 1 2 -2.3835052935243539e+03 -1.8821499365700953e+02 1.5224021003869672e+02 0 0 0
1877 1 1 -2.3832293450895386e+03 -1.8706701474347341e+02 1.5357451069016659e+02 0 0 0
1876 1 2 -2.3837378006480735e+03 -1.8772993276641270e+02 1.5320160321939011e+02 0 0 0
1855 1 2 -2.3827609575976558e+03 -1.8774707643579671e+02 1.5284314601530622e+02 0 0 0
1854 1 2 -2.3821585748639977e+03 -1.8709388853525732e+02 1.5332494634039466e+02 0 0 0
1822 1 2 -2.3817250875893592e+03 -1.8810987674875071e+02 1.5268390937388224e+02 0 0 0
1878 1 2 -2.3830619886324189e+03 -1.8614297468130295e+02 1.5357360174520159e+02 0 0 0
1866 1 2 -2.3842199610572970e+03 -1.8673394593895580e+02 1.5362780980127130e+02 0 0 0
1840 1 2 -2.3805385919874966e+03 -1.8834706592392058e+02 1.5368430156515467e+02 0 0 0
3289 1 1 -2.3857124372806738e+03 -2.0291661485671625e+02 1.5570067458026404e+02 0 0 0
3294 1 1 -2.3849147589190834e+03 -2.0274438124743978e+02 1.5482538170649462e+02 0 0 0
3288 1 1 -2.3849413783431396e+03 -2.0362671148187428e+02 1.5542123669478295e+02 0 0 0
3293 1 1 -2.3846914195739309e+03 -2.0263187347116937e+02 1.5599599839236299e+02 0 0 0
3853 1 1 -2.3832731441578840e+03 -2.0295692003135994e+02 1.5396578512713967e+02 0 0 0
3287 1 1 -2.3839769322735219e+03 -2.0424850812632502e+02 1.5538936196450436e+02 0 0 0
3787 1 1 -2.3840396217124289e+03 -2.0328829307450684e+02 1.5465427383008469e+02 0 0 0
3852 1 1 -2.3831035235126255e+03 -2.0294790809018065e+02 1.5503523174544642e+02 0 0 0
3854 1 1 -2.3831038704025764e+03 -2.0391200728830989e+02 1.5445601826516301e+02 0 0 0
3788 1 1 -2.3838053618376343e+03 -2.0318674751978048e+02 1.5577803111643743e+02 0 0 0
3878 1 1 -2.3821420373527626e+03 -2.0266134932075528e+02 1.5420507438622718e+02 0 0 0
3856 1 1 -2.3819519674048497e+03 -2.0268317451423022e+02 1.5528746107636050e+02 0 0 0
3855 1 1 -2.3820935326842732e+03 -2.0359040786088303e+02 1.5473821709924317e+02 0 0 0
3791 1 1 -2.3819257089865955e+03 -2.0352319096474898e+02 1.5596783630990799e+02 0 0 0
3857 1 1 -2.3827886604885807e+03 -2.0287142107938027e+02 1.5602692126257614e+02 0 0 0
3790 1 1 -2.3829075581016341e+03 -2.0390204582403160e+02 1.5558360302631544e+02 0 0 0
2754 1 1 -2.3811324375135182e+03 -2.0301452326914185e+02 1.5456482773268192e+02 0 0 0
3886 1 1 -2.3809786835953596e+03 -2.0300465979779591e+02 1.5563820390640464e+02 0 0 0
3792 1 1 -2.3811930887112212e+03 -2.0433457177525500e+02 1.5618787038126388e+02 0 0 0
3888 1 1 -2.3802107454863558e+03 -2.0254133127545444e+02 1.5429710545145960e+02 0 0 0
3494 1 1 -2.3875611918639211e+03 -2.0051643324120863e+02 1.5537582558821660e+02 0 0 0
3355 1 1 -2.3874323551088678e+03 -2.0160276716332177e+02 1.5581937346252244e+02 0 0 0
3489 1 1 -2.3884872341935134e+03 -1.9984425771552094e+02 1.5548749225239092e+02 0 0 0
3495 1 1 -2.3884042721000019e+03 -2.0098369631557139e+02 1.5608892596435010e+02 0 0 0
3330 1 1 -2.3871783255318073e+03 -2.0041005308303312e+02 1.5635745015499120e+02 0 0 0
3354 1 1 -2.3865152021301451e+03 -2.0218583541360479e+02 1.5587579488297902e+02 0 0 0
3353 1 1 -2.3858846777848139e+03 -2.0204414110072383e+02 1.5491373360050633e+02 0 0 0
3781 1 1 -2.3868067960278295e+03 -2.0026282407313971e+02 1.5434864754988990e+02 0 0 0
3352 1 1 -2.3867538211275137e+03 -2.0119678523163216e+02 1.5505102618513661e+02 0 0 0
3782 1 1 -2.3859687966741576e+03 -2.0094403932839492e+02 1.5416678911663612e+02 0 0 0
3296 1 1 -2.3857392164674452e+03 -2.0103139713784478e+02 1.5529944343476009e+02 0 0 0
3331 1 1 -2.3864928123352761e+03 -2.0014745223913869e+02 1.5556458322565797e+02 0 0 0
3783 1 1 -2.3857407903376484e+03 -2.0012144004220715e+02 1.5471699539900783e+02 0 0 0
3785 1 1 -2.3852194713560257e+03 -2.0163642003473007e+02 1.5405123825699960e+02 0 0 0
3332 1 1 -2.3854901717932876e+03 -2.0009233364955230e+02 1.5587583658808580e+02 0 0 0
3784 1 1 -2.3849076747505278e+03 -2.0074215560065582e+02 1.5460580518467924e+02 0 0 0
3295 1 1 -2.3848440164548524e+03 -2.0168782769425476e+02 1.5525779264184362e+02 0 0 0
3297 1 1 -2.3846782988575824e+03 -2.0072741935806687e+02 1.5574024046094573e+02 0 0 0
3292 1 1 -2.3855598984501498e+03 -2.0186373602500538e+02 1.5613523843354042e+02 0 0 0
3351 1 1 -2.3863373767602870e+03 -2.0110801518966278e+02 1.5610823921823206e+02 0 0 0
3926 1 1 -2.3832293126847576e+03 -2.0097915213664885e+02 1.5387370669411666e+02 0 0 0
3848 1 1 -2.3836156738591076e+03 -2.0220357514974629e+02 1.5631484655043531e+02 0 0 0
3786 1 1 -2.3841310975830074e+03 -2.0215662952243568e+02 1.5421853463946542e+02 0 0 0
3851 1 1 -2.3839342950138766e+03 -2.0225154466616917e+02 1.5524648858479551e+02 0 0 0
3957 1 1 -2.3840647114384178e+03 -2.0027212503833786e+02 1.5409235512389893e+02 0 0 0
3881 1 1 -2.3830845029355946e+03 -2.0198442176626764e+02 1.5444735585626404e+02 0 0 0
3849 1 1 -2.3828596605498087e+03 -2.0200293739348416e+02 1.5545831526667800e+02 0 0 0
3925 1 1 -2.3839735718458660e+03 -2.0124561502794245e+02 1.5470893562899428e+02 0 0 0
3958 1 1 -2.3837544540827453e+03 -2.0030620397461126e+02 1.5513098620221831e+02 0 0 0
3882 1 1 -2.3829231732504963e+03 -2.0103922950804559e+02 1.5493123630784967e+02 0 0 0
3929 1 1 -2.3830469416255983e+03 -1.9999850648541644e+02 1.5431775232479507e+02 0 0 0
3928 1 1 -2.3821848364405082e+03 -2.0061574765039327e+02 1.5419076613599987e+02 0 0 0
3850 1 1 -2.3836954104650722e+03 -2.0124752780816837e+02 1.5575461524800528e+02 0 0 0
3959 1 1 -2.3827953750606639e+03 -1.9996154603107234e+02 1.5534868863647094e+02 0 0 0
3877 1 1 -2.3820106819863490e+03 -2.0171760224580854e+02 1.5474642838704770e+02 0 0 0
3883 1 1 -2.3826754913930713e+03 -2.0085760121107461e+02 1.5602800794657048e+02 0 0 0
3876 1 1 -2.3819072449432269e+03 -2.0066943527147632e+02 1.5520313090947747e+02 0 0 0
3884 1 1 -2.3819091499273627e+03 -2.0159585692351621e+02 1.5588898876811083e+02 0 0 0
3960 1 1 -2.3835438750287267e+03 -2.0027929100221550e+02 1.5618748298381649e+02 0 0 0
3875 1 1 -2.3816846414776505e+03 -2.0061935341500322e+02 1.5628282729475680e+02 0 0 0
2757 1 1 -2.3803975651499895e+03 -2.0137589186156561e+02 1.5380239329992895e+02 0 0 0
2753 1 1 -2.3812631392011772e+03 -2.0202230210084463e+02 1.5395752681578847e+02 0 0 0
3887 1 1 -2.3801071616467416e+03 -2.0235778462338183e+02 1.5542672634925316e+02 0 0 0
2777 1 1 -2.3792116616225208e+03 -2.0234388885518803e+02 1.5617828266019703e+02 0 0 0
2749 1 1 -2.3811896412682991e+03 -2.0004687797692952e+02 1.5399872427989652e+02 0 0 0
3889 1 1 -2.3793682419384322e+03 -2.0166977702561931e+02 1.5414968751823611e+02 0 0 0
2755 1 1 -2.3810590796425035e+03 -2.0197637402722359e+02 1.5505363662810885e+02 0 0 0
2756 1 1 -2.3811952417511561e+03 -2.0100077089040701e+02 1.5448143774198846e+02 0 0 0
2771 1 1 -2.3801421512589486e+03 -2.0138833613435821e+02 1.5483654119815901e+02 0 0 0
2769 1 1 -2.3799156700296076e+03 -2.0036025825926365e+02 1.5545748512586334e+02 0 0 0
2758 1 1 -2.3801314484824070e+03 -2.0036095897949130e+02 1.5435160693319241e+02 0 0 0
2745 1 1 -2.3808383347328222e+03 -2.0014090687496605e+02 1.5500017146235592e+02 0 0 0
2772 1 1 -2.3809047676795681e+03 -2.0110880932465707e+02 1.5564139570646844e+02 0 0 0
2768 1 1 -2.3790440917930391e+03 -2.0070208853766206e+02 1.5467447644433028e+02 0 0 0
3890 1 1 -2.3792029846399300e+03 -2.0183218883821459e+02 1.5528694680540005e+02 0 0 0
2770 1 1 -2.3798568905399707e+03 -2.0140770911447729e+02 1.5591038205987374e+02 0 0 0
2801 1 1 -2.3792369643667680e+03 -1.9977796164114159e+02 1.5414073586979643e+02 0 0 0
3874 1 1 -2.3807301954650216e+03 -2.0007140459442493e+02 1.5612699382569784e+02 0 0 0
2798 1 1 -2.3789677294793823e+03 -2.0086434404655492e+02 1.5575617099665448e+02 0 0 0
2773 1 1 -2.3808668100972245e+03 -2.0204046407811208e+02 1.5619819295117091e+02 0 0 0
2799 1 1 -2.3787344075333367e+03 -1.9981656393104487e+02 1.5627773923805341e+02 0 0 0