LAMMPS config file for CCM (\rho_F = 0.25)

4000 atoms
4012 bonds

3 atom types
2 bond types 

-100 100 xlo xhi
-100 100 ylo yhi
-100 100 zlo zhi 

Masses

1 1.00
2 1.00
3 1.00

Atoms

1 1 1 -6.64392 5.42102 -4.95301
2 1 3 -6.87683 4.94601 -5.77001
3 1 3 -7.59582 4.31502 -5.64701
4 1 3 -7.34485 4.59901 -4.75102
5 1 3 -7.63489 4.24101 -3.93701
6 1 1 -7.67786 3.45001 -3.36901
7 1 1 -6.88977 3.13301 -3.52301
8 1 1 -7.15393 2.77701 -2.63201
9 1 1 -8.04797 2.89801 -2.47601
10 1 1 -7.73987 2.46 -1.71002
11 1 1 -8.39685 2.57101 -0.974009
12 1 1 -8.36194 3.473 -1.31701
13 1 1 -8.83899 3.75801 -2.06501
14 1 1 -8.82678 4.45201 -1.45602
15 1 1 -9.02283 3.95001 -0.622019
16 1 1 -8.57385 3.30401 -0.167019
17 1 1 -8.40686 4.17401 0.247991
18 1 3 -8.19495 4.72601 -0.495009
19 1 3 -7.67493 3.83902 -0.477019
20 1 3 -7.29089 3.08601 -0.888009
21 1 1 -7.32385 3.43101 -1.73701
22 1 1 -7.80896 3.94801 -2.38601
23 1 1 -8.53186 4.02501 -3.01002
24 1 1 -8.94592 3.18301 -2.91801
25 1 1 -9.72498 3.24501 -2.37701
26 1 3 -10.267 2.50201 -2.10301
27 1 3 -10.3729 1.64001 -1.76901
28 1 3 -9.43787 1.50001 -1.80302
29 1 3 -8.52478 1.75601 -1.77201
30 1 1 -8.98083 2.51101 -2.07601
31 1 1 -9.25281 3.01001 -1.34001
32 1 1 -9.81482 2.29301 -1.10801
33 1 1 -9.58484 2.86801 -0.337019
34 1 1 -9.89099 1.99701 -0.0970089
35 1 2 -9.52185 1.39001 0.572991
36 1 2 -9.04382 0.571997 0.785991
37 1 1 -8.77185 0.929007 -0.0710089
38 1 2 -8.2489 0.168997 0.191991
39 1 2 -8.52991 -0.559983 0.797991
40 1 2 -8.41296 -1.51599 0.634981
41 1 2 -8.14685 -1.97399 1.45798
42 1 2 -8.2279 -2.95099 1.52298
43 1 2 -7.38586 -3.16599 1.76099
44 1 2 -7.22498 -2.247 2.04699
45 1 2 -6.41882 -2.68299 1.73099
46 1 2 -6.08777 -2.85599 2.59598
47 1 2 -6.99988 -3.00598 2.768
48 1 2 -6.54895 -3.359 3.52498
49 1 2 -6.29578 -3.374 4.45798
50 1 2 -6.099 -2.43299 4.28998
51 1 2 -6.50378 -2.12699 5.09699
52 1 2 -5.68787 -1.71799 5.06998
53 1 2 -5.30286 -1.71599 5.90899
54 1 2 -4.68884 -1.15099 6.337
55 1 2 -5.51794 -0.710993 6.33098
56 1 2 -6.26379 -0.0889927 6.31499
57 1 2 -6.97595 -0.227983 5.71599
58 1 2 -7.67688 0.396007 6.09299
59 1 2 -7.6698 -0.372993 6.73798
60 1 2 -6.79187 -0.706003 7.15799
61 1 2 -6.20593 -0.000992672 7.41698
62 1 2 -6.93396 0.500007 6.98398
63 1 2 -6.65784 1.141 6.29198
64 1 1 -5.86389 0.795007 6.64998
65 1 2 -5.28381 0.614997 7.37398
66 1 2 -4.52991 0.899017 7.91698
67 1 2 -4.36291 0.901007 6.99199
68 1 2 -4.17883 0.918997 6.01299
69 1 2 -3.35779 0.402007 5.91999
70 1 2 -3.01477 -0.307993 5.41199
71 1 2 -3.53577 0.271007 4.89899
72 1 2 -3.82678 -0.642993 4.93198
73 1 2 -3.51794 -0.346003 4.08599
74 1 2 -2.86389 -0.698993 3.48198
75 1 2 -3.35193 0.0820073 3.13799
76 1 2 -4.03186 0.256007 2.42798
77 1 2 -4.7218 -0.122993 1.91498
78 1 2 -4.03186 0.227017 1.32999
79 1 2 -3.24084 -0.0849927 1.72298
80 1 2 -3.31091 -0.693993 2.40799
81 1 2 -3.67688 -1.54898 2.07699
82 1 2 -4.51599 -1.79099 1.80799
83 1 2 -5.40979 -2.21999 1.89098
84 1 2 -5.36584 -1.885 0.988991
85 1 2 -4.53992 -1.47499 0.808981
86 1 2 -4.94397 -1.26 -0.118009
87 1 2 -5.59094 -0.594003 -0.268019
88 1 2 -4.65198 -0.331003 -0.495009
89 1 2 -4.17981 0.486007 -0.550009
90 1 2 -4.10876 0.347997 0.334981
91 1 2 -3.42078 -0.0559927 -0.172009
92 1 2 -2.89783 -0.773993 -0.554009
93 1 2 -3.4989 -1.36798 -0.0520089
94 1 2 -4.03479 -0.699983 0.316991
95 1 2 -4.71594 -0.365983 0.884981
96 1 2 -4.1029 -0.805993 1.47799
97 1 2 -3.42395 -1.344 0.978991
98 1 2 -2.79993 -1.07498 1.62699
99 1 2 -2.62683 -1.40299 2.45699
100 1 2 -2.98889 -2.26099 2.78998
101 1 2 -2.78381 -1.70999 3.53199
102 1 2 -3.17883 -1.35999 4.26198
103 1 2 -3.28577 -1.56999 5.19599
104 1 2 -3.71789 -1.18099 5.92299
105 1 2 -3.18591 -0.829993 6.59398
106 1 2 -3.98596 -0.900003 7.20299
107 1 2 -3.70789 0.0120073 6.89699
108 1 2 -4.68298 0.0110073 6.62099
109 1 2 -4.172 -0.178993 5.84099
110 1 2 -4.84582 -0.645983 5.40598
111 1 2 -5.21399 -0.818003 4.51999
112 1 2 -5.19983 -1.00398 3.56499
113 1 2 -4.6908 -1.76599 3.29699
114 1 2 -4.09192 -2.20799 2.76499
115 1 2 -3.68176 -2.249 3.60799
116 1 2 -4.54187 -2.71099 3.74
117 1 2 -5.11584 -2.04898 4.22999
118 1 2 -4.13098 -2.29199 4.53699
119 1 2 -4.48596 -1.607 5.06399
120 1 2 -4.26086 -1.25199 4.15598
121 1 2 -3.83191 -1.21799 3.29198
122 1 2 -4.52893 -0.978993 2.57198
123 1 2 -5.3158 -1.42598 2.51899
124 1 2 -5.43689 -0.956003 1.66599
125 1 2 -5.62195 -0.874003 0.752981
126 1 2 -5.8739 -1.52399 0.0449911
127 1 2 -6.63196 -1.21599 -0.412009
128 1 2 -6.03992 -1.28598 -1.13001
129 1 2 -5.08289 -1.10498 -1.17802
130 1 2 -4.45691 -1.53699 -1.85601
131 1 2 -5.19885 -2.163 -1.64001
132 1 2 -5.56091 -2.23999 -0.747019
133 1 2 -5.09094 -2.357 0.0689911
134 1 2 -4.68787 -2.57898 0.862981
135 1 2 -3.82678 -2.44499 1.28998
136 1 2 -2.95886 -2.24098 1.64199
137 1 2 -2.55579 -3.05799 2.00399
138 1 2 -3.50183 -2.97499 2.11498
139 1 2 -4.42493 -2.971 1.90999
140 1 2 -5.35583 -3.30098 1.96799
141 1 2 -5.59582 -3.04 1.06699
142 1 2 -6.2218 -2.357 0.652991
143 1 2 -6.39392 -1.67598 1.30199
144 1 2 -6.33386 -1.64598 2.21898
145 1 2 -6.96692 -1.64398 2.95998
146 1 2 -6.55481 -2.36998 3.44298
147 1 2 -5.724 -2.012 3.36298
148 1 2 -5.53894 -2.92699 3.46299
149 1 2 -5.00281 -2.74298 2.75699
150 1 2 -4.89978 -3.67198 2.94498
151 1 2 -4.50793 -4.51999 3.03798
152 1 2 -3.64197 -4.31198 3.31399
153 1 2 -3.88489 -5.053 3.81399
154 1 2 -3.7279 -5.17499 4.79398
155 1 2 -3.59192 -4.49298 5.51999
156 1 2 -2.81384 -4.43399 4.95798
157 1 2 -2.85779 -4.88098 4.12598
158 1 2 -2.0448 -5.318 4.20499
159 1 2 -1.88489 -4.96099 5.08599
160 1 2 -1.04797 -5.35399 4.93899
161 1 2 -1.61682 -6.13599 5.23499
162 1 2 -1.76379 -7.08899 5.46599
163 1 2 -1.69177 -7.05899 4.52898
164 1 2 -0.795778 -7.51 4.57599
165 1 2 -0.539918 -7.87898 3.69599
166 1 2 -1.25085 -7.49799 3.26198
167 1 2 -0.563838 -7.30899 2.64399
168 1 2 -1.42688 -7.43099 2.21099
169 1 2 -1.12585 -7.15399 1.37499
170 1 2 -1.76892 -6.58798 1.66498
171 1 2 -2.40295 -7.35799 1.73899
172 1 2 -2.74597 -8.11099 1.35698
173 1 2 -3.11487 -8.42499 2.20699
174 1 2 -3.87097 -8.12699 1.63299
175 1 2 -4.05481 -7.62099 0.876991
176 1 2 -3.47888 -8.28099 0.585991
177 1 2 -2.96081 -9.02999 0.825991
178 1 2 -2.82898 -8.82799 -0.106009
179 1 2 -3.1178 -8.67198 -1.07101
180 1 2 -3.776 -8.47499 -0.370009
181 1 1 -3.57092 -7.62099 -0.216009
182 1 2 -3.328 -6.77098 -0.407009
183 1 2 -3.98376 -6.73699 0.248981
184 1 2 -3.724 -5.83499 0.148991
185 1 2 -3.42786 -5.64899 1.02599
186 1 2 -3.17883 -4.74199 1.09798
187 1 2 -4.06995 -4.68299 1.50799
188 1 2 -3.68298 -4.77599 2.32799
189 1 2 -4.13196 -3.9 2.25199
190 1 2 -4.96789 -4.32698 2.14499
191 1 2 -4.71179 -5.23699 2.18198
192 1 2 -4.87097 -6.14798 2.01899
193 1 2 -5.4259 -5.749 1.35299
194 1 2 -5.8219 -5.09899 0.812991
195 1 2 -5.03284 -4.77599 1.16898
196 1 2 -4.84094 -3.84499 1.16599
197 1 2 -4.31677 -3.98999 0.391991
198 1 2 -5.03992 -3.41699 0.0959811
199 1 2 -5.03284 -3.165 -0.838009
200 1 2 -5.83093 -3.76299 -0.701009
201 1 2 -6.01892 -2.96199 -0.213009
202 1 2 -6.55286 -2.27199 -0.471019
203 1 2 -7.37683 -2.49498 -0.883009
204 1 2 -7.20984 -2.96199 -0.00200885
205 1 2 -6.75989 -3.83899 -0.0410089
206 1 2 -6.28577 -4.68698 -0.157009
207 1 2 -6.68298 -5.46099 0.338991
208 1 2 -5.85876 -5.84699 0.0460011
209 1 2 -4.87488 -5.65799 0.102991
210 1 2 -4.26184 -5.18099 -0.465009
211 1 2 -4.21789 -4.93898 0.498981
212 1 2 -4.42981 -5.59198 1.12999
213 1 2 -4.23498 -6.52399 1.29099
214 1 2 -5.01086 -6.56198 0.732991
215 1 2 -5.83899 -6.97699 0.477991
216 1 2 -5.93079 -6.88098 -0.504009
217 1 2 -6.5658 -7.49599 -0.118009
218 1 2 -5.75793 -7.96298 -0.197019
219 1 1 -5.19983 -7.69998 -1.00001
220 1 2 -5.25085 -6.79499 -1.39302
221 1 2 -4.85681 -7.19799 -2.10601
222 1 2 -4.75696 -7.24399 -3.03102
223 1 2 -4.61487 -6.374 -2.74201
224 1 2 -3.89783 -5.95699 -3.31201
225 1 2 -3.9469 -5.484 -2.49301
226 1 2 -4.06995 -4.80799 -3.09201
227 1 2 -4.86584 -5.36099 -3.26602
228 1 2 -4.94592 -4.34198 -3.23202
229 1 2 -4.92297 -4.831 -2.38902
230 1 2 -4.505 -5.10599 -1.53401
231 1 2 -3.91589 -4.51 -2.01002
232 1 2 -4.43396 -3.82599 -2.46202
233 1 2 -5.01892 -3.18898 -2.00102
234 1 2 -5.64587 -2.63999 -2.52401
235 1 2 -6.3739 -3.22299 -2.62402
236 1 2 -6.06189 -2.90099 -3.45602
237 1 2 -5.19788 -2.32898 -3.53201
238 1 2 -4.94397 -3.191 -3.16302
239 1 2 -4.18787 -3.596 -3.56602
240 1 2 -3.3468 -3.10999 -3.39001
241 1 2 -3.09778 -2.22598 -3.06001
242 1 2 -2.92688 -1.30599 -3.12202
243 1 2 -3.08581 -0.405993 -2.88801
244 1 2 -3.04578 0.474007 -3.08001
245 1 2 -2.67883 0.0680073 -3.83901
246 1 2 -2.11487 -0.588993 -3.46701
247 1 2 -2.11584 0.0530073 -2.75901
248 1 2 -2.13782 -0.835993 -2.43601
249 1 2 -1.28699 -0.837983 -2.051
250 1 2 -1.21887 -0.504993 -2.90602
251 1 2 -0.475948 -1.03499 -2.89501
252 1 2 -0.280878 -1.36499 -3.72502
253 1 2 0.445192 -0.818003 -3.63301
254 1 2 0.511112 -0.329993 -2.87602
255 1 2 -0.287958 0.148007 -2.85101
256 1 2 -0.298948 -0.283983 -2.01901
257 1 2 -0.853878 -0.195993 -1.27301
258 1 2 -1.13098 0.318007 -2.03301
259 1 2 -1.901 -0.0100027 -1.64102
260 1 2 -2.72693 -0.476993 -1.57801
261 1 2 -3.53479 -0.854983 -1.97702
262 1 2 -3.08899 -1.45499 -1.34701
263 1 2 -3.3739 -2.23999 -0.777019
264 1 2 -3.00281 -2.96599 -0.263009
265 1 2 -2.1698 -2.91899 -0.749019
266 1 2 -2.5719 -2.37999 -1.49301
267 1 2 -2.60998 -1.78598 -2.26602
268 1 2 -1.95081 -2.50699 -2.39401
269 1 2 -2.09778 -2.81699 -3.33601
270 1 2 -2.08581 -1.83399 -3.40402
271 1 2 -1.33093 -1.27298 -3.67102
272 1 2 -1.96789 -1.36499 -4.44102
273 1 2 -1.77698 -2.38599 -4.31602
274 1 2 -0.887818 -2.14699 -4.30201
275 1 2 -1.224 -1.96698 -5.15801
276 1 2 -2.12781 -2.05499 -5.30702
277 1 2 -2.87292 -1.37898 -5.13801
278 1 2 -3.8009 -1.17598 -4.72102
279 1 2 -3.64587 -2.08699 -4.97201
280 1 2 -2.82898 -2.62799 -4.96601
281 1 2 -2.77893 -2.05799 -4.23802
282 1 2 -3.65881 -1.92699 -3.87402
283 1 2 -4.18396 -2.51999 -3.44102
284 1 2 -4.46594 -2.38199 -2.53001
285 1 2 -3.69177 -2.95799 -2.38601
286 1 2 -3.60583 -2.14398 -1.94902
287 1 2 -4.3009 -2.60399 -1.48001
288 1 2 -4.41394 -1.89299 -0.832009
289 1 2 -3.92688 -1.01898 -0.991009
290 1 2 -3.62292 -0.115983 -1.21501
291 1 2 -4.51599 -0.247003 -1.52001
292 1 2 -5.18689 -0.566003 -2.12402
293 1 2 -4.83997 -0.0139927 -2.81001
294 1 2 -4.27283 -0.704993 -2.73901
295 1 2 -3.91687 -1.56198 -2.78701
296 1 2 -4.59094 -1.50798 -3.50801
297 1 2 -4.56799 -2.04099 -4.37202
298 1 2 -4.64783 -1.88899 -5.31201
299 1 2 -4.85876 -1.06198 -5.68801
300 1 2 -4.40491 -0.283983 -5.49301
301 1 2 -3.47278 -0.181993 -5.65301
302 1 2 -3.4408 -0.119983 -6.56501
303 1 2 -3.2738 -0.226993 -7.51701
304 1 2 -4.12585 -0.141993 -7.97001
305 1 2 -4.19177 0.345007 -7.15801
306 1 2 -4.5719 -0.283983 -6.53401
307 1 2 -4.04089 -0.793993 -7.10401
308 1 2 -3.30579 -1.262 -6.76802
309 1 2 -2.41589 -1.46698 -6.46902
310 1 2 -2.66394 -0.658983 -5.99101
311 1 2 -1.78088 -0.585993 -6.36801
312 1 2 -1.66589 0.401007 -6.50001
313 1 2 -2.31799 0.0490073 -7.03301
314 1 2 -2.44983 -0.829993 -7.34901
315 1 2 -2.59289 -1.74799 -7.55702
316 1 2 -3.30579 -1.24298 -8.00601
317 1 2 -3.81897 -1.90599 -7.55702
318 1 2 -4.7428 -1.74399 -7.64701
319 1 2 -5.26379 -2.23899 -6.93901
320 1 2 -5.83093 -2.85599 -6.44601
321 1 2 -6.62878 -2.47699 -6.01301
322 1 2 -6.44788 -2.05899 -5.15602
323 1 2 -5.58093 -2.02199 -4.73602
324 1 2 -6.33679 -2.288 -4.13902
325 1 2 -6.01477 -3.03198 -4.55801
326 1 2 -6.33777 -3.33599 -5.41101
327 1 2 -7.05798 -2.88298 -5.01501
328 1 2 -7.3988 -2.219 -4.32402
329 1 2 -7.31384 -1.43698 -4.92301
330 1 2 -6.474 -1.25699 -4.51002
331 1 2 -5.74377 -1.38298 -3.88101
332 1 2 -6.06482 -1.846 -3.17102
333 1 2 -6.68591 -2.19499 -2.57902
334 1 2 -7.12683 -2.50099 -3.30801
335 1 2 -6.97278 -3.15 -3.92802
336 1 2 -7.94495 -3.219 -3.72901
337 1 2 -8.33484 -2.27199 -3.80801
338 1 2 -8.59485 -2.73699 -2.99801
339 1 2 -7.80994 -2.70099 -2.43601
340 1 2 -8.13782 -3.53899 -2.08201
341 1 2 -7.27087 -3.94998 -1.92701
342 1 2 -7.07288 -3.01 -1.75901
343 1 2 -6.80286 -3.40698 -1.00102
344 1 2 -6.22498 -2.76599 -1.39102
345 1 2 -6.03699 -3.61998 -1.71801
346 1 2 -5.55383 -3.954 -2.49301
347 1 2 -6.44983 -4.34999 -2.42501
348 1 2 -5.86194 -4.83199 -1.81602
349 1 2 -6.48498 -4.50099 -1.20602
350 1 2 -6.39587 -5.415 -1.07002
351 1 2 -6.11389 -6.288 -1.53201
352 1 2 -5.88977 -6.829 -2.25601
353 1 2 -5.64587 -6.05899 -2.76602
354 1 2 -5.76794 -5.13899 -2.99101
355 1 2 -5.58997 -4.85298 -3.93901
356 1 2 -5.9198 -5.77098 -3.89201
357 1 2 -5.005 -6.22899 -4.04801
358 1 2 -4.95984 -5.441 -4.65501
359 1 2 -4.23181 -5.73499 -5.14701
360 1 2 -4.04993 -5.441 -4.21301
361 1 2 -3.2279 -5.831 -4.41101
362 1 2 -2.42078 -5.48799 -3.90002
363 1 2 -3.22082 -5.20799 -3.50901
364 1 2 -2.79187 -4.41399 -3.54701
365 1 2 -3.64685 -4.42499 -4.01802
366 1 2 -4.61487 -4.54499 -4.29402
367 1 2 -4.22693 -3.749 -4.58201
368 1 2 -3.76599 -2.91999 -4.37402
369 1 2 -4.3949 -2.86798 -5.13902
370 1 2 -4.9259 -3.03398 -4.31602
371 1 2 -5.51477 -3.77599 -4.00201
372 1 2 -6.27991 -3.94998 -3.43901
373 1 2 -6.44983 -3.99098 -4.38801
374 1 2 -6.71277 -4.86199 -4.47601
375 1 2 -6.63977 -4.95899 -3.53001
376 1 2 -7.26477 -4.26599 -3.71601
377 1 2 -7.3678 -3.609 -2.97401
378 1 2 -7.47986 -4.54199 -2.69502
379 1 2 -7.14587 -4.99999 -1.87701
380 1 2 -6.55798 -5.57799 -2.30001
381 1 2 -7.00793 -6.43898 -2.38201
382 1 2 -7.18982 -6.08199 -1.52101
383 1 2 -6.86877 -6.50598 -0.745009
384 1 2 -7.40686 -5.79799 -0.424009
385 1 2 -7.81799 -5.28099 -1.06901
386 1 2 -8.0968 -4.66599 -1.73501
387 1 2 -8.54187 -4.36998 -0.871009
388 1 2 -8.25378 -4.92099 -0.131009
389 1 2 -7.32092 -4.71199 -0.0730089
390 1 2 -7.46692 -4.32498 -0.900019
391 1 2 -7.83484 -3.44199 -1.03401
392 1 2 -8.46179 -2.971 -0.477019
393 1 2 -8.24695 -2.06499 -0.451009
394 1 2 -7.60779 -1.42198 -0.686009
395 1 2 -7.36194 -1.859 0.173991
396 1 2 -7.23596 -2.331 0.968981
397 1 2 -8.05383 -2.53398 0.520991
398 1 2 -8.62683 -3.24799 0.560991
399 1 2 -7.94788 -3.90299 0.0169911
400 1 2 -7.48279 -3.706 0.821981
401 1 2 -6.57581 -3.45799 1.04198
402 1 2 -6.75793 -4.41699 0.861991
403 1 2 -7.62488 -4.81699 0.905981
404 1 2 -8.49499 -4.80399 1.17699
405 1 2 -8.19788 -3.98699 1.53798
406 1 2 -7.30481 -4.15799 1.81998
407 1 2 -7.48181 -5.13298 1.90198
408 1 2 -6.63293 -5.27399 1.58199
409 1 2 -6.55676 -4.70499 2.34499
410 1 2 -5.76086 -5.09999 2.06499
411 1 2 -5.55579 -5.67198 2.80698
412 1 2 -4.88489 -5.53299 3.50199
413 1 2 -5.57996 -6.02399 3.87699
414 1 2 -5.85583 -6.67099 3.28098
415 1 2 -5.25378 -7.26898 2.77099
416 1 2 -4.76794 -6.58798 3.21699
417 1 2 -4.17981 -6.77199 2.47799
418 1 2 -4.71179 -7.39299 1.86599
419 1 2 -4.2738 -7.89499 2.56998
420 1 2 -4.0658 -7.43898 3.38999
421 1 2 -3.17493 -7.77399 3.574
422 1 2 -3.07898 -6.88899 3.43499
423 1 2 -3.30188 -6.20799 2.79499
424 1 2 -4.10876 -5.72699 2.85698
425 1 2 -3.8158 -5.78099 1.92399
426 1 2 -2.9408 -6.221 1.84499
427 1 2 -3.43591 -7.05699 1.59598
428 1 2 -3.30383 -7.37999 2.47699
429 1 2 -2.4469 -7.67398 2.74698
430 1 2 -2.38586 -6.67099 2.63099
431 1 2 -2.01086 -6.83299 3.46099
432 1 2 -2.21497 -7.69599 3.83098
433 1 2 -2.87195 -7.346 4.56199
434 1 2 -3.8219 -7.28099 4.421
435 1 2 -4.651 -6.88399 4.34199
436 1 2 -4.05383 -6.27199 3.89499
437 1 2 -3.18884 -5.90799 3.86899
438 1 2 -2.51086 -6.40099 4.29799
439 1 2 -2.79382 -5.67398 4.82699
440 1 2 -2.80579 -5.234 5.69599
441 1 2 -2.56482 -6.18799 5.90699
442 1 2 -3.13196 -6.76699 5.38498
443 1 2 -3.76477 -6.30399 4.91498
444 1 2 -3.63098 -5.83299 5.70598
445 1 2 -3.60681 -5.05899 6.33999
446 1 2 -3.05188 -4.52298 6.84598
447 1 2 -2.51794 -5.26898 6.71799
448 1 2 -1.95691 -4.665 6.18299
449 1 2 -2.66296 -4.01399 5.96299
450 1 2 -3.50793 -3.76499 6.24499
451 1 2 -3.00281 -2.95999 6.07999
452 1 2 -3.19592 -2.094 6.38399
453 1 2 -2.8678 -2.66098 7.07999
454 1 2 -2.578 -2.87299 7.89998
455 1 2 -2.64197 -3.844 7.949
456 1 2 -3.34094 -3.51599 7.40198
457 1 2 -2.40784 -3.68199 6.95598
458 1 2 -1.82288 -4.44699 7.24399
459 1 2 -1.63684 -3.553 7.52298
460 1 2 -1.80994 -2.82399 6.86298
461 1 2 -2.0509 -1.90099 6.68699
462 1 2 -2.53088 -1.34099 6.00399
463 1 2 -2.32288 -2.25899 5.67299
464 1 2 -1.88586 -3.094 5.86098
465 1 2 -1.87097 -3.91199 5.35099
466 1 2 -2.45398 -3.32299 4.921
467 1 2 -3.33484 -3.48599 5.13599
468 1 2 -4.22888 -3.26898 4.87499
469 1 2 -4.49084 -4.191 5.11399
470 1 2 -3.78894 -4.23499 4.40598
471 1 2 -4.52478 -3.83899 4.01598
472 1 2 -4.88977 -4.72399 4.25499
473 1 2 -4.59582 -5.58899 4.47699
474 1 2 -4.84192 -6.00499 5.37398
475 1 2 -4.49377 -5.13799 5.66599
476 1 2 -4.58386 -4.29999 6.14899
477 1 2 -5.43689 -4.62099 5.73899
478 1 2 -5.47693 -5.219 4.97599
479 1 2 -6.05579 -5.01499 4.16698
480 1 1 -6.51379 -4.53099 4.81399
481 1 2 -6.526 -3.9 5.46599
482 1 2 -6.901 -2.99599 5.42798
483 1 2 -7.36096 -3.55199 4.84398
484 1 2 -7.38196 -4.28598 4.16599
485 1 2 -6.70178 -4.4 3.57799
486 1 2 -7.17981 -3.956 2.91799
487 1 2 -7.9408 -3.59999 2.48198
488 1 2 -8.12781 -2.68599 2.57799
489 1 2 -8.02087 -1.65599 2.59398
490 1 2 -8.77795 -1.13899 2.56598
491 1 2 -8.22595 -0.880983 1.81699
492 1 2 -9.05286 -1.26099 1.48398
493 1 2 -9.49499 -1.43799 0.695991
494 1 2 -9.03699 -2.31398 0.997991
495 1 2 -9.23596 -2.27799 0.0349911
496 1 2 -9.38586 -1.456 -0.420009
497 1 2 -9.20886 -2.00798 -1.16302
498 1 2 -8.35388 -2.443 -1.42901
499 1 2 -7.64197 -1.87898 -1.80001
500 1 2 -6.7218 -1.90799 -1.60301
501 1 2 -6.02283 -1.45799 -2.14302
502 1 2 -5.13489 -1.56699 -2.62901
503 1 2 -5.54285 -0.762003 -3.03601
504 1 2 -6.49377 -0.724993 -3.19801
505 1 2 -6.95398 -1.45899 -3.58502
506 1 2 -7.88293 -1.24599 -3.90501
507 1 2 -7.59289 -0.770983 -3.17201
508 1 1 -7.95496 0.0240173 -2.71601
509 1 2 -8.04993 -0.807993 -2.17901
510 1 2 -8.4928 -1.17598 -1.39701
511 1 2 -9.29797 -0.656983 -1.18701
512 1 2 -9.0199 0.0970073 -0.674009
513 1 2 -8.69177 0.877007 -1.15602
514 1 2 -9.00378 1.67302 -0.805019
515 1 2 -9.6029 0.950007 -0.664009
516 1 2 -9.81995 0.461997 0.133991
517 1 2 -9.36682 -0.348993 0.254991
518 1 2 -9.55896 -0.272983 1.19999
519 1 2 -9.4408 -0.234993 2.16399
520 1 2 -8.61877 0.173017 1.83498
521 1 2 -8.77991 1.09501 1.79699
522 1 2 -9.48498 1.71802 1.89199
523 1 2 -8.71081 2.18701 1.66999
524 1 2 -8.27795 1.89001 2.43699
525 1 2 -8.27185 1.65501 3.32699
526 1 2 -7.94885 1.93602 4.14798
527 1 2 -7.12292 1.587 4.27399
528 1 2 -6.7489 2.10202 3.54398
529 1 2 -7.30383 2.75201 3.99199
530 1 2 -8.1239 3.02501 4.44199
531 1 2 -8.8949 2.59501 4.00899
532 1 2 -8.24182 2.68901 3.34798
533 1 2 -9.02283 2.56701 2.83698
534 1 2 -9.36291 1.82001 3.36899
535 1 2 -9.1178 1.02601 2.83999
536 1 2 -8.24988 0.612007 2.79999
537 1 2 -8.72278 -0.166993 3.01499
538 1 2 -7.91199 -0.573993 2.86699
539 1 2 -7.75378 -1.20398 3.56299
540 1 2 -8.59998 -1.027 3.824
541 1 2 -9.43787 -1.33199 3.39998
542 1 2 -9.51794 -2.22199 3.00199
543 1 2 -8.99084 -2.19599 2.22599
544 1 2 -9.02185 -3.11199 2.16698
545 1 2 -8.85095 -3.219 3.16999
546 1 2 -8.55286 -2.87699 3.99
547 1 2 -8.66492 -2.11699 3.45798
548 1 2 -7.73498 -2.30899 3.42699
549 1 2 -7.73889 -3.27298 3.49199
550 1 2 -8.255 -4.06099 3.55799
551 1 2 -8.24988 -4.64699 2.71399
552 1 2 -7.43298 -5.07799 3.018
553 1 2 -7.19788 -5.29399 3.87099
554 1 2 -6.43176 -5.38799 3.32699
555 1 2 -6.81189 -5.79799 2.574
556 1 2 -7.15491 -6.25598 1.81899
557 1 2 -7.48498 -6.04199 0.934991
558 1 2 -6.93982 -6.57599 0.345981
559 1 2 -6.42395 -6.16199 1.00298
560 1 2 -6.54089 -7.03899 1.31899
561 1 2 -5.62683 -7.01 1.49898
562 1 2 -5.94592 -6.288 2.06699
563 1 2 -6.31287 -7.19599 2.36799
564 1 2 -5.82483 -8.00699 2.03199
565 1 2 -5.92493 -8.068 1.08899
566 1 2 -5.12488 -7.71199 0.771991
567 1 2 -4.71081 -7.579 -0.106009
568 1 2 -4.96985 -6.68698 -0.296019
569 1 2 -4.25891 -6.21399 -0.697019
570 1 2 -4.28088 -7.137 -1.02801
571 1 2 -4.08777 -8.01 -1.36401
572 1 2 -3.45984 -7.83998 -2.05601
573 1 2 -3.84998 -6.89398 -2.19401
574 1 2 -3.54797 -6.42299 -1.46501
575 1 2 -4.41492 -6.11899 -1.74301
576 1 2 -5.25891 -5.72598 -1.91502
577 1 2 -5.24499 -5.777 -0.953999
578 1 2 -5.45984 -4.859 -0.766019
579 1 2 -5.19397 -4.54399 0.102991
580 1 2 -5.80798 -4.01699 0.574001
581 1 2 -5.92786 -4.206 1.50298
582 1 2 -6.48889 -3.66799 2.08298
583 1 2 -5.93079 -3.969 2.80799
584 1 2 -5.48279 -4.66098 3.22199
585 1 2 -5.70398 -4.02098 3.84998
586 1 2 -5.52087 -3.98499 4.81299
587 1 2 -5.22082 -3.12099 4.56299
588 1 2 -4.96277 -2.54799 5.26398
589 1 2 -5.81482 -2.94799 5.33298
590 1 2 -5.18494 -3.51799 5.59998
591 1 2 -4.32581 -3.23999 5.93198
592 1 2 -3.94299 -2.91599 6.69098
593 1 2 -4.31091 -2.19899 6.16199
594 1 2 -3.703 -2.48799 5.49599
595 1 2 -3.11487 -2.42899 4.71499
596 1 2 -2.14197 -2.36299 4.60799
597 1 2 -1.38391 -2.70999 5.12598
598 1 2 -0.989868 -3.36998 4.60199
599 1 2 -0.982788 -4.29199 4.86799
600 1 2 -0.877808 -4.71599 5.72298
601 1 2 -0.0179377 -4.36998 5.60399
602 1 2 -0.186888 -3.97798 6.46399
603 1 2 0.190062 -3.18099 6.13698
604 1 2 0.738162 -3.47798 5.42998
605 1 2 0.783082 -3.275 4.52898
606 1 2 1.0011 -2.32199 4.59299
607 1 2 1.14319 -1.97199 3.69199
608 1 2 0.821172 -1.956 2.82299
609 1 2 0.993042 -1.08998 3.12598
610 1 2 0.450072 -0.387993 3.41999
611 1 2 0.909062 0.367017 3.27199
612 1 2 1.24719 0.612007 2.41298
613 1 2 0.619022 0.683007 1.62999
614 1 2 -0.326778 0.673017 1.61599
615 1 2 0.0731223 0.933007 0.747991
616 1 2 0.351202 0.980007 -0.162009
617 1 2 0.269172 0.0920073 0.143991
618 1 2 -0.395868 -0.0589927 0.786991
619 1 2 -1.00696 -0.850983 0.631991
620 1 2 -1.16492 -0.390993 1.44999
621 1 2 -0.329958 -0.226993 2.04499
622 1 2 0.542112 -0.201983 2.38898
623 1 2 0.122192 0.657007 2.60399
624 1 2 0.423222 1.38701 3.13199
625 1 2 0.882202 2.10602 3.57499
626 1 2 1.526 1.96402 4.22799
627 1 2 0.747192 1.80201 4.74698
628 1 2 0.0911923 1.85501 5.47098
629 1 2 0.707152 2.23501 5.98598
630 1 2 1.547 1.83101 5.85898
631 1 2 2.21301 2.32901 5.35599
632 1 2 3.05115 1.96101 4.95499
633 1 2 3.13709 2.91002 4.80898
634 1 2 3.08215 3.29802 3.91498
635 1 2 2.12219 3.70401 3.90799
636 1 2 2.0802 3.04901 4.60399
637 1 2 2.44714 3.37901 5.43499
638 1 2 1.94519 4.06102 5.87499
639 1 2 2.39514 3.82101 6.63898
640 1 2 3.18103 3.25502 6.42299
641 1 2 3.82507 2.62102 6.49898
642 1 2 3.8761 3.07101 7.35999
643 1 2 4.13416 2.20102 7.62699
644 1 2 3.96619 1.60801 6.87299
645 1 2 3.51209 0.840007 7.27399
646 1 2 2.68811 1.07402 7.69599
647 1 2 2.11316 0.481017 8.15699
648 1 2 2.51209 0.177007 7.33199
649 1 2 2.00818 0.629007 6.67798
650 1 2 2.1012 -0.347993 6.41898
651 1 2 1.67908 -0.811983 5.74399
652 1 2 1.02307 -0.867983 6.49599
653 1 2 1.12708 0.0700073 6.393
654 1 2 0.967162 0.978007 6.13199
655 1 2 0.444212 0.534007 5.53098
656 1 2 -0.213988 -0.110993 5.20699
657 1 2 -0.551878 -0.0259927 4.30999
658 1 2 -0.0748277 0.588007 3.72298
659 1 2 -0.489868 -0.0919827 3.19199
660 1 2 -1.11584 0.418997 3.56798
661 1 2 -1.3468 -0.531983 3.768
662 1 2 -1.80286 -1.13799 3.11098
663 1 2 -1.797 -1.35098 4.06899
664 1 2 -1.81287 -2.13999 3.49698
665 1 2 -2.04895 -2.83998 2.90398
666 1 2 -1.98376 -2.17099 2.20199
667 1 2 -1.13782 -2.16899 2.74698
668 1 2 -0.985958 -2.94199 3.36098
669 1 2 -0.995968 -2.30098 4.16099
670 1 2 -0.0567577 -2.15698 4.35199
671 1 2 0.177122 -1.497 3.74
672 1 2 -0.830928 -1.402 3.52399
673 1 2 -0.702998 -1.23899 4.44599
674 1 2 -1.19592 -0.566003 4.95798
675 1 2 -1.86096 -0.152993 5.40799
676 1 2 -1.18787 0.487007 5.15499
677 1 2 -1.74695 0.345007 4.36098
678 1 2 -2.328 -0.430993 4.34699
679 1 2 -2.21277 -1.16999 4.96799
680 1 2 -1.38977 -1.60799 5.17399
681 1 2 -0.604858 -2.06299 5.30999
682 1 2 -0.140988 -2.954 5.07299
683 1 2 0.529182 -2.38399 5.51598
684 1 2 1.21814 -1.77199 5.87899
685 1 2 1.40906 -1.37799 4.99199
686 1 2 0.383182 -1.46999 5.05399
687 1 2 0.680052 -0.596993 5.48198
688 1 2 0.0592023 -0.366993 6.21499
689 1 2 0.161012 0.483007 6.60499
690 1 2 0.511112 0.715007 7.47298
691 1 2 0.0870423 0.762007 8.42499
692 1 2 -0.475948 0.379007 7.64899
693 1 2 -1.16394 -0.253983 7.62999
694 1 2 -0.696898 -0.260003 6.83399
695 1 2 -0.911988 -0.0839927 5.92199
696 1 2 -1.56995 -0.827993 6.12798
697 1 2 -2.15686 -0.809983 6.93398
698 1 2 -1.90784 -1.00798 7.83999
699 1 2 -1.92786 -2.00598 7.74099
700 1 2 -1.03796 -1.81999 8.11298
701 1 2 -1.06482 -2.75598 7.97999
702 1 2 -1.73376 -2.59499 8.69999
703 1 2 -1.93298 -1.62499 8.74799
704 1 2 -1.13391 -0.992983 8.75098
705 1 2 -1.66882 -0.224993 8.56499
706 1 2 -2.21497 0.00400733 7.78998
707 1 2 -2.76477 0.347007 7.11199
708 1 2 -2.41589 -0.000992672 6.31299
709 1 2 -1.68298 0.179007 6.79299
710 1 2 -1.703 0.745007 6.06499
711 1 2 -2.09387 1.17901 6.85299
712 1 2 -2.59778 1.27501 6.07299
713 1 2 -3.36584 1.43101 5.58899
714 1 2 -4.01892 1.36001 4.89798
715 1 2 -3.7279 2.30601 5.02199
716 1 2 -3.79187 3.12102 4.57999
717 1 2 -4.48791 3.20601 3.99199
718 1 2 -4.18787 2.51101 3.33599
719 1 2 -3.73987 1.91501 4.04198
720 1 2 -4.6969 1.975 4.22098
721 1 2 -4.61682 1.04602 3.91799
722 1 2 -3.74499 0.724997 3.95199
723 1 2 -2.81384 0.449017 3.98899
724 1 2 -2.13977 0.168007 3.33399
725 1 2 -2.38782 -0.252993 2.54398
726 1 2 -1.3678 -0.267993 2.58799
727 1 2 -0.937868 -1.05699 2.40299
728 1 2 -1.8009 -1.01898 1.93599
729 1 2 -2.15784 -0.166993 1.48398
730 1 2 -2.01892 -0.762003 0.815981
731 1 2 -2.56384 -1.32698 0.280981
732 1 2 -2.31189 -1.72899 -0.537009
733 1 2 -1.47595 -2.06299 -0.794019
734 1 1 -1.85583 -1.60298 -1.61701
735 1 2 -1.97693 -0.851993 -1.04801
736 1 2 -1.73987 -0.782993 -0.188009
737 1 2 -1.57678 0.0309973 -0.635019
738 1 2 -1.73279 0.817007 -0.187009
739 1 2 -2.17395 0.946997 0.646991
740 1 2 -2.53186 0.799007 1.50998
741 1 2 -3.14197 0.519007 0.874991
742 1 2 -3.026 -0.425983 0.745991
743 1 2 -2.41296 -0.0449927 0.183981
744 1 2 -1.51379 0.108007 0.595981
745 1 2 -0.984978 0.864997 0.772981
746 1 2 -1.43298 0.724007 1.52698
747 1 2 -1.92786 0.637007 2.30298
748 1 2 -1.84289 1.184 3.10499
749 1 2 -2.39783 1.55801 2.43099
750 1 2 -2.96594 0.722997 2.449
751 1 2 -3.56482 1.07001 1.75699
752 1 2 -4.04797 1.27101 0.995991
753 1 2 -4.87781 0.879007 0.904991
754 1 1 -5.30896 0.412017 0.200991
755 1 2 -5.91492 1.06801 0.612981
756 1 2 -5.79578 1.51101 1.45398
757 1 2 -5.78186 0.737997 2.01198
758 1 2 -5.63684 0.139007 1.28299
759 1 2 -6.27795 -0.0120027 0.640981
760 1 2 -6.61291 0.489007 1.33899
761 1 2 -6.97082 1.22401 0.989981
762 1 2 -7.13 0.706007 0.249991
763 1 1 -7.0238 -0.156983 -0.191019
764 1 2 -6.70178 -0.284993 -1.10202
765 1 2 -7.21692 -0.950993 -1.53802
766 1 2 -7.03479 -1.20899 -2.42901
767 1 2 -7.02991 -0.236993 -2.39701
768 1 2 -6.20398 -0.415993 -2.03601
769 1 2 -5.79382 0.303007 -2.42102
770 1 2 -5.04382 0.581007 -1.91902
771 1 2 -4.20496 0.748007 -1.61001
772 1 2 -3.88684 0.181997 -2.34602
773 1 2 -2.9779 0.384017 -2.05702
774 1 2 -2.26379 1.00702 -2.26701
775 1 2 -2.00989 0.961997 -1.43501
776 1 2 -1.11682 0.900007 -1.02001
777 1 2 -0.523798 0.534007 -0.412009
778 1 2 -0.717888 1.43001 -0.0870189
779 1 2 -0.762818 2.363 -0.292019
780 1 2 0.0140423 2.71402 -0.604009
781 1 2 0.135132 2.06302 0.0899911
782 1 2 -0.576778 2.14502 0.748981
783 1 2 -0.777948 1.67001 1.43899
784 1 2 -1.30896 1.48102 2.19399
785 1 2 -0.908808 0.686017 2.53199
786 1 2 -0.666868 1.33201 3.19599
787 1 2 -1.10583 2.06102 3.68398
788 1 2 -0.219848 2.40901 3.55799
789 1 2 -0.132928 1.62701 4.07699
790 1 2 -0.216918 0.974997 4.76699
791 1 2 -1.07483 1.16301 4.30599
792 1 2 -0.875848 1.86401 4.86999
793 1 2 -1.49499 2.31102 5.40799
794 1 2 -1.06897 1.64902 5.93799
795 1 2 -0.488888 0.931997 5.85898
796 1 2 -0.829958 0.821007 6.70998
797 1 2 -1.12781 1.70201 7.01198
798 1 2 -0.803828 2.46101 7.43599
799 1 2 -0.339968 3.24701 7.17199
800 1 2 0.573122 3.36101 7.55599
801 1 2 1.19812 3.69002 8.24299
802 1 2 2.06018 3.87201 7.93398
803 1 2 2.19006 2.94601 8.21799
804 1 1 2.65418 3.05601 7.39699
805 1 2 3.07019 2.19101 7.20398
806 1 2 2.87122 2.05401 8.15099
807 1 2 3.62903 1.46701 8.15499
808 1 2 4.37903 0.899017 8.04899
809 1 2 4.995 0.114997 7.74599
810 1 2 5.3551 -0.142993 6.91399
811 1 2 5.52722 -0.909993 6.36098
812 1 2 4.89417 -1.221 6.94298
813 1 2 3.95911 -1.57199 7.07799
814 1 2 3.99011 -0.683993 7.46799
815 1 2 3.53113 0.0480173 7.85499
816 1 2 2.71301 -0.517993 8.04699
817 1 2 2.03308 -0.736993 7.37099
818 1 2 1.41223 -0.0609927 7.462
819 1 2 1.578 -0.531983 8.25499
820 1 2 1.00305 -1.00598 7.59798
821 1 2 0.332152 -0.478993 7.24
822 1 2 0.486212 -0.234993 8.10199
823 1 2 0.639042 -0.715993 8.95998
824 1 2 -0.251828 -0.303993 8.90299
825 1 2 0.413212 0.321007 9.33799
826 1 1 1.06116 0.558997 8.60399
827 1 1 0.908082 1.36401 9.14098
828 1 1 0.915162 2.32901 8.85898
829 1 2 1.08411 2.44301 7.93198
830 1 2 0.300172 2.36702 7.41298
831 1 2 -0.143918 1.50201 7.51699
832 1 2 -0.0338077 1.55002 6.55698
833 1 2 -0.234978 2.47801 6.36899
834 1 2 -1.20178 2.62301 6.40699
835 1 2 -1.97693 2.13601 6.40999
836 1 2 -2.22986 2.89302 5.88898
837 1 2 -2.98181 2.97201 5.32898
838 1 2 -3.07092 2.31401 6.00399
839 1 2 -2.52991 1.975 5.22399
840 1 2 -1.77478 1.37102 5.11899
841 1 2 -2.48376 0.692007 5.25298
842 1 2 -3.02893 1.22201 4.65198
843 1 2 -2.18787 1.29001 4.17499
844 1 2 -1.83899 2.16002 4.40799
845 1 2 -1.76697 2.87501 3.74698
846 1 2 -2.50183 3.04901 3.13698
847 1 2 -2.49988 3.63202 2.28998
848 1 2 -1.73791 4.22601 2.12899
849 1 2 -2.10388 4.78601 2.77698
850 1 2 -2.73083 4.74501 2.13698
851 1 2 -3.41492 4.17801 2.48899
852 1 2 -2.85583 4.11101 3.25899
853 1 2 -2.52991 3.61601 4.00298
854 1 2 -2.18591 3.13301 4.68699
855 1 2 -2.85779 2.64001 4.27298
856 1 2 -2.47498 2.04301 3.55799
857 1 2 -2.90784 1.23102 3.43198
858 1 2 -3.75793 1.15301 2.97298
859 1 2 -4.60388 1.58301 3.01999
860 1 2 -4.95081 0.668007 2.81998
861 1 2 -4.60388 1.10602 2.00199
862 1 2 -4.73889 1.91301 1.48798
863 1 2 -5.22693 2.00401 2.27999
864 1 2 -5.83093 1.54802 2.84299
865 1 2 -6.24792 2.35801 2.60898
866 1 2 -6.50085 3.03201 1.99399
867 1 2 -5.53894 2.98401 2.32999
868 1 2 -6.04382 3.53801 2.94799
869 1 2 -6.55383 3.95102 3.66799
870 1 2 -7.19495 3.68701 4.33098
871 1 2 -7.65295 3.70401 3.47098
872 1 2 -8.23083 4.38801 3.22799
873 1 2 -8.73987 3.66701 3.63399
874 1 2 -9.10998 3.66701 2.76099
875 1 2 -9.07581 3.31601 1.87299
876 1 2 -8.21789 3.04301 2.28998
877 1 2 -7.47498 3.55002 2.25799