LAMMPS config file for CCM (\rho_F = 0.25)

4000 atoms
4012 bonds

3 atom types
2 bond types 

-100 100 xlo xhi
-100 100 ylo yhi
-100 100 zlo zhi 

Masses

1 1.00
2 1.00
3 1.00

Atoms

1 1 3 -3.85997 6.04601 -4.86302
2 1 3 -4.29284 5.51 -5.58601
3 1 3 -4.68175 4.58 -5.52502
4 1 3 -4.23986 4.44901 -6.35801
5 1 1 -4.51085 4.803 -7.15602
6 1 1 -5.1798 4.976 -6.43301
7 1 1 -5.51989 5.65399 -5.89102
8 1 1 -4.94689 6.045 -6.50102
9 1 1 -4.05382 5.683 -6.61502
10 1 1 -3.35997 5.48101 -7.30401
11 1 1 -3.22887 4.799 -6.59501
12 1 1 -2.35387 5.17501 -6.54602
13 1 1 -2.09679 5.679 -5.79901
14 1 1 -2.01891 6.362 -6.38101
15 1 1 -3.05285 6.14301 -6.50501
16 1 1 -3.28185 5.568 -5.78401
17 1 3 -2.93688 6.22 -5.22001
18 1 3 -2.71691 6.96201 -5.74301
19 1 3 -1.89391 7.075 -5.27301
20 1 3 -2.40294 7.874 -5.07301
21 1 1 -2.64293 7.11 -4.60501
22 1 1 -3.10485 7.903 -4.23101
23 1 1 -4.0338 7.81 -4.04801
24 1 1 -3.66979 6.85601 -3.96002
25 1 1 -4.40783 7.02401 -4.59802
26 1 1 -3.62291 7.18199 -5.20402
27 1 3 -3.84288 6.50901 -5.81802
28 1 3 -4.73888 6.76801 -5.55702
29 1 3 -4.97789 6.09799 -4.94201
30 1 3 -5.77892 6.198 -4.51701
31 1 1 -5.55895 7.04601 -4.05401
32 1 1 -4.7318 7.16001 -3.54402
33 1 1 -4.16784 6.50299 -3.07501
34 1 1 -4.66198 6.107 -3.86201
35 1 2 -4.88488 5.676 -3.02001
36 1 2 -5.6588 6.03501 -3.27001
37 1 1 -5.17589 6.66001 -2.71902
38 1 2 -5.27794 5.993 -1.99301
39 1 2 -5.33092 5.247 -1.32501
40 1 2 -6.20885 5.071 -1.57002
41 1 2 -6.16295 5.955 -1.21301
42 1 2 -5.46691 6.46801 -1.06701
43 1 2 -4.57384 5.95999 -1.14501
44 1 2 -4.31286 6.39301 -1.90402
45 1 2 -3.57995 6.79 -2.33001
46 1 2 -3.12584 7.15399 -1.59101
47 1 2 -3.50597 7.952 -2.01901
48 1 2 -4.30797 7.486 -2.30601
49 1 2 -5.09386 7.196 -1.73402
50 1 2 -5.51476 7.57401 -0.919022
51 1 2 -5.4049 7.38001 -0.0250223
52 1 2 -5.66588 7.427 0.914978
53 1 2 -6.34191 6.922 0.397978
54 1 2 -6.37877 6.834 -0.513012
55 1 2 -7.09679 6.2 -0.424012
56 1 2 -6.89977 5.317 -0.636012
57 1 2 -7.78698 5.545 -1.06401
58 1 2 -7.08898 5.70101 -1.68402
59 1 2 -7.21178 6.646 -1.53501
60 1 2 -6.3109 6.769 -1.83102
61 1 2 -6.37194 6.519 -2.72801
62 1 2 -6.3358 5.694 -2.38301
63 1 2 -6.40099 5.207 -3.22102
64 1 1 -6.71886 6.012 -3.55902
65 1 2 -7.29284 5.961 -2.72001
66 1 2 -7.4569 5.23799 -3.30302
67 1 2 -7.87877 4.48 -2.93301
68 1 2 -7.89489 5.094 -2.19601
69 1 2 -6.97692 4.83699 -2.30401
70 1 2 -6.59386 4.03501 -2.10101
71 1 2 -5.83288 3.892 -2.64401
72 1 2 -5.52697 3.211 -1.99601
73 1 2 -4.83385 2.625 -2.17901
74 1 2 -5.01085 2.118 -2.98301
75 1 2 -5.34581 3.01599 -3.06602
76 1 2 -5.86388 2.26801 -3.57701
77 1 2 -5.85094 2.39 -4.50401
78 1 2 -6.72594 2.722 -4.68002
79 1 2 -6.71691 3.61701 -4.35401
80 1 2 -7.58678 3.633 -4.69601
81 1 2 -7.63878 4.07 -3.88301
82 1 2 -6.99498 4.651 -4.27702
83 1 2 -6.26183 5.31501 -4.32202
84 1 2 -6.89196 5.497 -5.04901
85 1 2 -6.31896 4.954 -5.70101
86 1 2 -6.98497 4.33901 -5.39401
87 1 2 -6.57897 3.44001 -5.35202
88 1 2 -5.73986 3.362 -4.98202
89 1 2 -5.67296 3.30899 -4.05401
90 1 2 -6.32897 3.27899 -3.32501
91 1 2 -6.93395 2.46401 -3.29002
92 1 2 -7.43175 2.887 -3.91801
93 1 2 -8.09191 2.13001 -3.74002
94 1 2 -8.81579 1.983 -3.14501
95 1 2 -8.81383 1.375 -3.90301
96 1 2 -8.25377 1.021 -3.17701
97 1 2 -8.85997 0.275 -3.41001
98 1 2 -9.14196 0.483 -2.45901
99 1 2 -8.64977 1.181 -2.16001
100 1 2 -8.89196 2.013 -1.71601
101 1 2 -8.99376 1.33 -1.10202
102 1 2 -8.39684 1.47701 -0.403012
103 1 2 -7.97692 1.53 -1.27401
104 1 2 -7.02184 1.502 -1.55702
105 1 2 -7.25695 2.39701 -1.73602
106 1 2 -6.66393 2.918 -2.24301
107 1 2 -6.39879 3.286 -1.41401
108 1 2 -6.42394 3.11299 -0.470012
109 1 2 -6.48497 2.57401 0.349978
110 1 2 -5.76793 2.194 -0.219022
111 1 2 -5.73595 1.873 0.648988
112 1 2 -5.51476 1.842 1.59299
113 1 2 -5.18297 2.65599 1.09998
114 1 2 -4.27599 2.64301 1.37899
115 1 2 -4.8778 2.51599 2.10698
116 1 2 -5.66076 3.06301 2.23899
117 1 2 -6.03698 3.372 3.03098
118 1 2 -5.09386 3.567 2.98198
119 1 2 -4.32287 2.945 2.86799
120 1 2 -3.89586 3.784 2.88399
121 1 2 -3.62999 4.39701 2.22399
122 1 2 -3.60387 4.761 3.074
123 1 2 -4.08092 5.34301 2.49299
124 1 2 -3.19689 5.679 2.50298
125 1 2 -2.49596 5.047 2.77898
126 1 2 -1.78698 4.5 2.66799
127 1 2 -1.3258 4.713 1.84598
128 1 2 -0.851924 4.90599 1.04299
129 1 2 -1.57995 4.859 0.456988
130 1 2 -1.80187 5.413 1.16099
131 1 2 -2.40099 4.957 1.79799
132 1 2 -1.90392 5.63401 2.22799
133 1 2 -1.93395 6.42301 1.63599
134 1 2 -2.85289 6.31 1.56399
135 1 2 -2.72692 7.22901 1.54899
136 1 2 -3.41295 7.81101 1.52498
137 1 2 -3.72081 7.80901 0.653978
138 1 2 -4.64586 8.008 0.842988
139 1 2 -4.41686 7.177 1.35499
140 1 2 -4.4818 6.892 0.451988
141 1 2 -3.59777 6.71601 0.805988
142 1 2 -3.23278 5.861 0.700988
143 1 2 -3.45983 5.165 -0.00501235
144 1 2 -4.00182 4.715 0.669988
145 1 2 -4.32995 4.12 1.30199
146 1 2 -4.69176 3.506 1.92598
147 1 2 -3.74791 3.379 1.88299
148 1 2 -3.05895 2.92101 2.37699
149 1 2 -3.7528 2.36 2.21599
150 1 2 -3.09899 1.737 1.93999
151 1 2 -3.66979 1.75 1.16099
152 1 2 -4.64977 1.77401 0.893988
153 1 2 -4.56383 1.53301 1.81598
154 1 2 -4.16295 0.76801 1.44599
155 1 2 -3.91784 0.47499 0.569978
156 1 2 -3.98888 -0.28 1.21799
157 1 2 -4.85387 -0.01201 0.864978
158 1 2 -4.76989 0.019 1.86899
159 1 2 -5.63976 0.43601 2.09398
160 1 2 -5.37291 -0.10499 2.80298
161 1 2 -5.69689 0.698 3.30898
162 1 2 -4.96496 1.248 3.52898
163 1 2 -4.79479 1.195 4.39599
164 1 2 -3.84191 1.131 4.57198
165 1 2 -3.58288 0.321 4.08298
166 1 2 -3.01085 1.034 3.86399
167 1 2 -2.49279 0.308 3.54398
168 1 2 -2.82384 -0.264 2.79198
169 1 2 -3.49791 0.28099 3.09199
170 1 2 -4.24498 -0.18899 2.77199
171 1 2 -4.5609 0.211 3.55098
172 1 2 -4.65587 -0.576 4.00199
173 1 2 -4.60997 0.183 4.64998
174 1 2 -5.40392 0.18601 4.11699
175 1 2 -6.17077 0.319 4.62198
176 1 2 -5.90197 1.165 4.28098
177 1 2 -6.3358 2.013 4.58999
178 1 2 -6.30285 2.333 5.44498
179 1 2 -6.19982 1.797 6.17899
180 1 2 -6.31994 2.612 6.63299
181 1 1 -5.98375 3.20101 7.30498
182 1 2 -5.27086 3.877 7.17499
183 1 2 -5.06286 4.66001 6.75199
184 1 2 -4.26696 5.18199 6.72699
185 1 2 -4.51989 4.97901 5.83599
186 1 2 -4.6588 5.84999 5.45899
187 1 2 -4.60192 6.567 4.79299
188 1 2 -4.0609 5.795 4.58298
189 1 2 -4.97594 5.48 4.50599
190 1 2 -5.60094 5.441 5.17399
191 1 2 -5.63781 4.87101 5.89599
192 1 2 -6.51793 4.748 5.64998
193 1 2 -6.96496 4.403 4.84998
194 1 2 -6.78087 5.137 4.22498
195 1 2 -6.94396 4.898 3.365
196 1 2 -6.65099 4.08901 3.87198
197 1 2 -7.65978 3.985 3.79099
198 1 2 -8.4049 3.39901 3.71299
199 1 2 -7.70885 3.258 3.04099
200 1 2 -7.0089 3.95301 2.89798
201 1 2 -7.88488 4.40599 2.84398
202 1 2 -8.22399 4.717 2.01299
203 1 2 -7.30895 4.69001 1.71599
204 1 2 -7.61095 5.52201 1.28299
205 1 2 -7.79796 5.476 0.248978
206 1 2 -7.77599 4.61901 -0.259012
207 1 2 -7.04284 4.09799 -0.0160223
208 1 2 -7.02697 4.941 0.534988
209 1 2 -6.75182 5.81101 0.581988
210 1 2 -5.88097 5.459 0.847978
211 1 2 -5.94884 5.763 -0.0840123
212 1 2 -5.62487 4.92101 -0.416012
213 1 2 -5.88976 4.49401 0.404988
214 1 2 -6.35094 4.5 1.24299
215 1 2 -6.46788 3.60401 0.703978
216 1 2 -7.39489 3.79601 0.955978
217 1 2 -7.96788 4.569 0.817978
218 1 2 -8.51891 3.963 1.33899
219 1 1 -8.72789 3.713 2.27898
220 1 2 -8.6549 2.84301 2.71799
221 1 2 -8.82799 2.222 3.44498
222 1 2 -8.62389 1.36901 3.90299
223 1 2 -7.77086 1.053 3.84199
224 1 2 -8.39489 0.407 3.47498
225 1 2 -9.00084 -0.305 3.41498
226 1 2 -8.85582 0.095 2.51499
227 1 2 -7.97277 0.05001 2.04799
228 1 2 -7.54088 0.42 2.77698
229 1 2 -7.01476 1.234 2.92798
230 1 2 -6.47399 1.12799 2.21399
231 1 2 -6.21178 2.058 2.30399
232 1 2 -6.57799 1.844 1.44599
233 1 2 -6.1859 2.685 1.45099
234 1 2 -7.13976 2.818 1.27298
235 1 2 -8.07189 2.931 0.996978
236 1 2 -8.84997 2.736 1.50998
237 1 2 -9.28991 2.532 0.657988
238 1 2 -9.36998 1.677 0.145988
239 1 2 -8.94494 1.012 0.718978
240 1 2 -8.5299 1.864 0.769988
241 1 2 -7.71593 1.823 1.24499
242 1 2 -7.55382 1.08901 1.85099
243 1 2 -7.33385 1.937 2.22999
244 1 2 -8.30382 1.999 2.05898
245 1 2 -7.86388 2.75501 2.03199
246 1 2 -7.58678 3.68399 2.02498
247 1 2 -6.59288 3.63401 1.85898
248 1 2 -6.85289 2.892 2.39098
249 1 2 -6.81188 2.332 3.16399
250 1 2 -7.20788 1.90599 3.91898
251 1 2 -7.85387 2.228 3.26099
252 1 2 -8.18297 1.379 2.87798
253 1 2 -9.08898 1.267 2.70598
254 1 2 -9.39196 2.112 2.26598
255 1 2 -9.38195 1.76599 1.44399
256 1 2 -9.57995 0.86701 1.72699
257 1 2 -8.64489 0.909 1.79999
258 1 2 -8.8629 0.111 1.35698
259 1 2 -8.02282 0.45101 1.09099
260 1 2 -7.8319 1.11299 0.444978
261 1 2 -7.04796 0.858 0.909988
262 1 2 -6.80578 1.528 0.365988
263 1 2 -7.54088 2.14901 0.322988
264 1 2 -7.38585 3.055 0.124988
265 1 2 -8.09288 3.665 0.211978
266 1 2 -8.51183 2.784 0.0749877
267 1 2 -8.8109 2.456 -0.767012
268 1 2 -7.87487 2.538 -0.754012
269 1 2 -8.18883 2.955 -1.63502
270 1 2 -8.29894 3.56501 -0.930022
271 1 2 -7.37194 3.413 -0.953012
272 1 2 -7.45397 3.553 -1.86302
273 1 2 -8.24376 4.049 -1.99101
274 1 2 -8.3568 4.676 -1.23802
275 1 2 -7.49181 4.57199 -1.30502
276 1 2 -6.61388 4.303 -0.967012
277 1 2 -5.76183 4.165 -1.28401
278 1 2 -5.60289 3.83 -0.444012
279 1 2 -5.44176 3.256 0.251988
280 1 2 -4.72081 3.232 -0.299012
281 1 2 -4.14977 3.99001 0.00798765
282 1 2 -4.94982 4.21401 0.341988
283 1 2 -4.98278 5.16201 0.476988
284 1 2 -4.31481 5.75 0.768988
285 1 2 -4.39196 5.153 1.45798
286 1 2 -3.4298 5.31501 1.55898
287 1 2 -3.92589 6.18801 1.72098
288 1 2 -3.73595 6.99001 2.23998
289 1 2 -3.36095 6.57601 3.02698
290 1 2 -2.56481 6.666 2.50298
291 1 2 -2.93175 7.525 2.60299
292 1 2 -3.71886 7.683 3.21898
293 1 2 -3.62999 7.301 4.03399
294 1 2 -4.1859 6.601 3.75599
295 1 2 -3.96178 5.711 3.48598
296 1 2 -4.17296 4.927 3.949
297 1 2 -4.63585 4.629 3.12099
298 1 2 -4.7838 4.539 2.16999
299 1 2 -5.63292 4.08499 2.15299
300 1 2 -5.56896 3.66201 1.34598
301 1 2 -5.28283 4.526 1.29999
302 1 2 -5.66979 5.177 1.87198
303 1 2 -6.38683 4.89099 2.34899
304 1 2 -6.58898 5.486 1.58899
305 1 2 -6.0758 6.09301 2.24799
306 1 2 -6.18786 6.504 1.36899
307 1 2 -5.46593 6.43199 0.787978
308 1 2 -4.99791 6.07 1.55399
309 1 2 -5.35997 6.89301 1.91099
310 1 2 -4.77892 7.359 2.50298
311 1 2 -5.1798 6.76801 3.18699
312 1 2 -4.45788 6.336 2.61298
313 1 2 -5.04479 5.55699 2.64399
314 1 2 -5.05187 5.855 3.49299
315 1 2 -5.91393 5.373 3.37198
316 1 2 -5.80089 4.455 3.19599
317 1 2 -5.19884 4.607 3.90899
318 1 2 -5.66393 3.789 4.02999
319 1 2 -5.9879 4.502 4.59099
320 1 2 -5.80578 3.84101 5.19298
321 1 2 -6.55187 3.4 4.78399
322 1 2 -7.01476 3.08699 3.93398
323 1 2 -6.15294 2.77001 3.93999
324 1 2 -5.67687 2.873 4.75098
325 1 2 -5.18981 2.80899 5.60999
326 1 2 -5.4359 3.10601 6.41199
327 1 2 -6.04186 3.832 6.38898
328 1 2 -6.69591 3.368 5.85799
329 1 2 -7.21398 2.583 5.78998
330 1 2 -7.19884 2.541 4.82999
331 1 2 -7.68395 3.39301 4.671
332 1 2 -8.09191 2.57601 4.38099
333 1 2 -7.92589 1.721 4.70299
334 1 2 -8.35582 0.83699 4.71699
335 1 2 -8.07995 0.045 4.421
336 1 2 -7.1549 0.062 4.38299
337 1 2 -6.72497 0.61 3.75599
338 1 2 -7.03893 1.073 4.55999
339 1 2 -7.51598 0.72299 5.26899
340 1 2 -7.14489 1.59799 5.49698
341 1 2 -6.38097 1.094 5.36699
342 1 2 -6.60778 0.11299 5.52698
343 1 2 -7.20397 0.075 6.22899
344 1 2 -6.66393 0.83699 6.35499
345 1 2 -5.97594 0.902 7.01099
346 1 2 -5.65099 1.782 7.15398
347 1 2 -5.16198 2.013 6.40598
348 1 2 -5.35875 1.142 6.22199
349 1 2 -5.68688 0.23799 6.15198
350 1 2 -6.01378 -0.699 5.92499
351 1 2 -5.19079 -1.207 5.85499
352 1 2 -5.9569 -1.48201 5.32799
353 1 2 -6.29381 -1.83101 6.18499
354 1 2 -6.90685 -2.072 5.51899
355 1 2 -6.74889 -1.774 4.68699
356 1 2 -7.66295 -1.946 4.80898
357 1 2 -7.67296 -2.337 3.92798
358 1 2 -8.14684 -1.45199 4.02399
359 1 2 -7.51989 -0.914 4.51699
360 1 2 -7.71788 -0.486 5.29999
361 1 2 -7.04186 -1.039 5.60499
362 1 2 -6.51598 -0.718 4.87999
363 1 2 -5.65392 -0.751 4.49
364 1 2 -5.33996 -0.266 5.22298
365 1 2 -5.43297 0.68 5.17998
366 1 2 -5.42296 1.679 5.14098
367 1 2 -4.55285 1.48799 5.41199
368 1 2 -4.28283 2.275 5.87499
369 1 2 -3.72081 2.219 5.12499
370 1 2 -4.60289 2.389 4.75699
371 1 2 -5.34288 2.099 4.16099
372 1 2 -5.11095 2.92 3.81899
373 1 2 -5.28478 2.32401 3.16399
374 1 2 -6.01476 1.70999 3.30399
375 1 2 -5.38781 1.435 2.58599
376 1 2 -4.68981 0.801 2.60898
377 1 2 -3.77794 1.032 2.47699
378 1 2 -2.79284 0.817 2.49199
379 1 2 -1.93981 0.39501 2.58599
380 1 2 -1.80797 1.308 2.23499
381 1 2 -2.00597 0.92301 1.39499
382 1 2 -1.01793 0.83499 1.63199
383 1 2 -1.05895 1.056 0.712988
384 1 2 -1.89196 1.249 0.375978
385 1 2 -2.88781 1.176 0.468978
386 1 2 -2.51281 1.941 1.00799
387 1 2 -3.13683 2.56301 1.31499
388 1 2 -2.63292 3.331 1.48598
389 1 2 -3.10875 4.241 1.35299
390 1 2 -2.19591 4.12 1.09699
391 1 2 -2.64586 4.91899 0.723988
392 1 2 -2.42882 4.717 -0.193022
393 1 2 -3.1549 4.16001 0.0769877
394 1 2 -3.45299 4.36299 -0.773012
395 1 2 -3.82287 5.20301 -1.01701
396 1 2 -4.50988 5.127 -0.452012
397 1 2 -4.77599 4.27001 -0.858012
398 1 2 -4.77697 3.515 -1.36001
399 1 2 -3.8629 3.424 -1.08201
400 1 2 -4.30675 2.58901 -1.07501
401 1 2 -5.15587 2.042 -1.24301
402 1 2 -5.47692 2.85401 -0.945022
403 1 2 -6.15783 2.329 -1.42802
404 1 2 -5.78576 2.24201 -2.29501
405 1 2 -6.69787 1.818 -2.45701
406 1 2 -7.66295 1.868 -2.70201
407 1 2 -7.29284 0.965 -2.79002
408 1 2 -6.47081 0.83 -2.26301
409 1 2 -6.02697 1.289 -1.57701
410 1 2 -6.3258 1.37101 -0.718012
411 1 2 -6.92077 2.194 -0.596022
412 1 2 -7.40978 1.413 -0.449022
413 1 2 -7.80382 0.58 -0.727022
414 1 2 -8.60582 0.44001 -0.220012
415 1 2 -9.23278 -0.022 -0.720012
416 1 2 -9.12487 -0.80099 -0.0910123
417 1 2 -9.00792 -1.60901 -0.710022
418 1 2 -8.25182 -2.111 -0.357022
419 1 2 -7.52379 -2.50799 -0.866012
420 1 2 -8.12194 -3.21699 -0.710022
421 1 2 -7.4359 -3.66501 -1.15202
422 1 2 -7.61388 -3.003 -1.78401
423 1 2 -8.31481 -3.634 -1.79101
424 1 2 -8.11779 -4.49099 -2.11701
425 1 2 -7.21178 -4.85099 -2.33801
426 1 2 -7.05675 -3.892 -2.21601
427 1 2 -6.58678 -3.02701 -1.99902
428 1 2 -6.56286 -2.948 -1.02301
429 1 2 -6.67687 -2.362 -0.322022
430 1 2 -7.21496 -1.552 -0.539012
431 1 2 -7.94689 -1.24099 -0.954002
432 1 2 -8.16198 -0.382 -0.548012
433 1 2 -8.42882 -0.293 0.430988
434 1 2 -7.91295 -0.67399 1.15699
435 1 2 -8.84288 -0.953 1.13999
436 1 2 -9.1859 -1.522 1.77898
437 1 2 -8.87682 -1.16501 2.58098
438 1 2 -8.14684 -1.28599 2.00499
439 1 2 -7.99279 -0.742 2.79799
440 1 2 -7.59899 -0.404 3.58199
441 1 2 -6.96496 -0.615 2.86498
442 1 2 -6.48278 0.179 2.68398
443 1 2 -6.85997 0.25299 1.78899
444 1 2 -7.14684 -0.66501 1.90099
445 1 2 -7.03576 -1.517 2.23099
446 1 2 -6.8629 -2.337 1.74499
447 1 2 -7.72399 -2.293 2.04099
448 1 2 -8.59386 -2.333 2.36298
449 1 2 -7.92882 -1.847 2.97399
450 1 2 -7.19689 -1.42801 3.38599
451 1 2 -6.41588 -1.164 3.88299
452 1 2 -6.20788 -0.30999 3.56798
453 1 2 -5.49376 -0.986 3.45499
454 1 2 -6.16784 -1.272 2.90799
455 1 2 -5.78087 -1.71299 2.11399
456 1 2 -5.14977 -2.44101 2.27099
457 1 2 -4.3778 -1.88 2.25298
458 1 2 -4.85997 -1.72599 1.49999
459 1 2 -5.61095 -1.75599 0.863988
460 1 2 -5.56798 -0.87899 0.521988
461 1 2 -6.24596 -0.362 0.0579877
462 1 2 -6.76281 -0.223 0.854988
463 1 2 -5.86388 -0.083 1.16498
464 1 2 -5.37096 -0.86999 1.48299
465 1 2 -6.0758 -0.541 2.07699
466 1 2 -6.38878 -1.186 1.39899
467 1 2 -6.62877 -1.328 0.496978
468 1 2 -6.57482 -2.24701 0.671988
469 1 2 -7.51793 -2.12401 0.388978
470 1 2 -7.39586 -1.639 1.18599
471 1 2 -8.32189 -1.918 1.17299
472 1 2 -8.22887 -1.389 0.355988
473 1 2 -7.46178 -0.82699 0.230988
474 1 2 -7.46276 0.108 0.194978
475 1 2 -6.76281 0.554 -0.206022
476 1 2 -5.9818 0.77899 0.346988
477 1 2 -6.10778 0.929 1.27898
478 1 2 -5.13097 0.872 1.23699
479 1 2 -4.90099 0.97499 0.294988
480 1 1 -5.29284 1.295 -0.508012
481 1 2 -4.72399 2.058 -0.258012
482 1 2 -4.14586 2.465 0.415988
483 1 2 -4.46496 3.32199 0.710988
484 1 2 -3.54479 3.31301 0.822988
485 1 2 -3.49791 3.167 -0.120012
486 1 2 -3.1339 2.344 0.282988
487 1 2 -3.61681 2.086 -0.499022
488 1 2 -3.96276 1.402 0.130988
489 1 2 -3.27086 1.006 -0.455012
490 1 2 -3.13976 1.542 -1.25201
491 1 2 -2.43493 1.948 -1.64201
492 1 2 -2.95983 1.581 -2.32701
493 1 2 -2.97985 1.65 -3.25302
494 1 2 -3.7108 1.11701 -3.19702
495 1 2 -4.12682 1.86 -3.54801
496 1 2 -4.07799 2.013 -2.65002
497 1 2 -4.06286 1.802 -1.72502
498 1 2 -4.30285 1.426 -0.903012
499 1 2 -4.92394 0.73799 -1.23101
500 1 2 -5.27086 -0.14799 -1.28802
501 1 2 -6.01989 0.437 -1.00901
502 1 2 -6.87877 0.48 -1.35401
503 1 2 -7.63292 0.67301 -1.81802
504 1 2 -8.49181 0.344 -1.56501
505 1 2 -8.66491 -0.599 -1.44401
506 1 2 -9.03893 -0.55 -2.35401
507 1 2 -8.51989 -0.74 -3.13001
508 1 1 -9.38585 -0.824 -3.67401
509 1 2 -8.8839 -1.623 -3.53401
510 1 2 -9.26793 -1.736 -2.57501
511 1 2 -8.78991 -1.565 -1.73602
512 1 2 -8.44982 -2.42 -1.47401
513 1 2 -7.74498 -1.90899 -1.75001
514 1 2 -7.95495 -1.052 -1.99101
515 1 2 -7.61876 -0.336 -1.43701
516 1 2 -7.04699 -0.477 -0.682022
517 1 2 -6.11583 -0.612 -0.936012
518 1 2 -6.10485 -1.43 -0.416012
519 1 2 -5.88292 -2.104 -0.957012
520 1 2 -6.70495 -2.011 -1.43202
521 1 2 -6.86486 -1.061 -1.54101
522 1 2 -5.99181 -1.313 -1.77001
523 1 2 -5.4359 -0.774 -2.30201
524 1 2 -6.22179 -0.26899 -1.88902
525 1 2 -7.03698 -0.11999 -2.35801
526 1 2 -7.46984 -0.70601 -2.87602
527 1 2 -8.07384 -0.057 -2.46902
528 1 2 -7.69884 0.155 -3.35801
529 1 2 -6.74987 0.35401 -3.46002
530 1 2 -6.76378 -0.599 -3.56301
531 1 2 -6.35387 -1.01201 -2.83601
532 1 2 -6.96886 -1.627 -2.45402
533 1 2 -6.43175 -2.073 -3.07101
534 1 2 -6.37682 -1.563 -3.97302
535 1 2 -7.20983 -1.436 -4.426
536 1 2 -8.12389 -1.74499 -4.31301
537 1 2 -7.85289 -1.66501 -5.29402
538 1 2 -7.66491 -0.701 -5.11801
539 1 2 -7.79284 0.278 -5.18002
540 1 2 -7.15587 0.89501 -4.94302
541 1 2 -7.47399 1.452 -5.61102
542 1 2 -6.77892 1.521 -6.23202
543 1 2 -6.86193 0.642 -5.91902
544 1 2 -6.17492 0.896 -5.30502
545 1 2 -6.46276 1.79801 -5.20501
546 1 2 -6.02379 2.53099 -5.65701
547 1 2 -6.17589 2.28301 -6.62802
548 1 2 -6.84093 2.909 -6.33102
549 1 2 -7.22081 2.437 -5.57202
550 1 2 -7.84484 2.467 -4.83601
551 1 2 -8.47081 2.933 -4.34501
552 1 2 -8.22692 3.30899 -3.49002
553 1 2 -7.95592 2.95999 -2.61502
554 1 2 -7.27697 3.50501 -3.01701
555 1 2 -6.77184 4.277 -3.19601
556 1 2 -5.94884 4.32199 -3.68901
557 1 2 -5.26891 4.597 -3.14701
558 1 2 -5.50695 5 -2.31101
559 1 2 -4.91881 4.353 -1.98901
560 1 2 -4.6798 3.71801 -2.68501
561 1 2 -4.78893 3.735 -3.67201
562 1 2 -5.18688 4.209 -4.38502
563 1 2 -6.04381 4.394 -4.79202
564 1 2 -5.43493 5.083 -4.98101
565 1 2 -5.17199 5.248 -4.08401
566 1 2 -4.39879 5.137 -4.58801
567 1 2 -4.10485 4.191 -4.61601
568 1 2 -3.33678 4.50701 -4.16302
569 1 2 -3.15587 5.27001 -4.68101
570 1 2 -2.27477 5.704 -4.62901
571 1 2 -2.92785 6.177 -4.08901
572 1 2 -3.03087 6.22701 -3.13801
573 1 2 -2.17785 5.91001 -3.33401
574 1 2 -2.59899 5.16001 -3.74902
575 1 2 -3.19396 4.792 -3.12402
576 1 2 -3.62584 5.458 -3.65501
577 1 2 -4.26989 4.722 -3.62602
578 1 2 -4.19689 4.663 -2.73001
579 1 2 -4.41686 5.249 -1.98101
580 1 2 -3.76476 5.603 -2.54002
581 1 2 -3.3358 5.918 -1.72801
582 1 2 -3.57287 6.366 -0.982022
583 1 2 -3.99889 6.073 -0.228012
584 1 2 -4.89586 6.12101 -0.0980223
585 1 2 -4.60289 6.78701 -0.619012
586 1 2 -4.10387 7.29801 -1.32301
587 1 2 -4.55993 8.05001 -1.14901
588 1 2 -4.33996 7.825 -0.242012
589 1 2 -3.59191 7.18601 -0.246012
590 1 2 -3.00597 6.43399 -0.127012
591 1 2 -2.76696 7.21801 0.363988
592 1 2 -2.28283 6.452 0.683978
593 1 2 -2.16784 5.64099 0.167988
594 1 2 -1.79381 5.504 -0.670012
595 1 2 -2.78576 5.534 -0.773012
596 1 2 -2.32799 5.43 -1.60101
597 1 2 -2.70299 5.427 -2.50901
598 1 2 -2.38781 4.543 -2.27001
599 1 2 -3.34288 4.79 -1.90202
600 1 2 -3.9359 3.974 -1.99801
601 1 2 -3.80578 3.13401 -2.43701
602 1 2 -4.31188 2.879 -3.22502
603 1 2 -3.3568 2.659 -3.40202
604 1 2 -3.3319 2.22 -4.22302
605 1 2 -3.18078 2.802 -4.97001
606 1 2 -3.8358 3.179 -4.26701
607 1 2 -4.64879 3.349 -4.66201
608 1 2 -5.04796 2.625 -5.21801
609 1 2 -4.14782 2.64901 -5.65002
610 1 2 -4.49181 1.705 -5.66401
611 1 2 -4.90099 1.338 -6.42901
612 1 2 -5.64489 1.65801 -5.93002
613 1 2 -5.28698 1.564 -5.00401
614 1 2 -5.95885 1.32801 -4.37101
615 1 2 -5.10485 1.65399 -3.91101
616 1 2 -4.88878 2.612 -4.07101
617 1 2 -4.31481 2.124 -4.64401
618 1 2 -4.18688 1.172 -4.82601
619 1 2 -3.53795 0.515 -5.03501
620 1 2 -4.36583 -0.045 -4.93801
621 1 2 -4.88488 -0.44101 -5.60902
622 1 2 -5.57189 -0.27299 -4.93601
623 1 2 -6.39196 -0.727 -4.62901
624 1 2 -6.6588 -0.05099 -5.16601
625 1 2 -6.34093 0.304 -4.35702
626 1 2 -7.28576 -0.024 -4.35002
627 1 2 -7.92687 -0.699 -4.04202
628 1 2 -8.73693 -0.345 -4.39501
629 1 2 -8.25695 0.455 -4.21902
630 1 2 -8.11193 1.361 -4.66401
631 1 2 -7.57799 1.152 -3.93801
632 1 2 -7.05285 1.937 -4.22601
633 1 2 -6.57799 1.508 -3.51602
634 1 2 -5.86681 1.386 -2.92001
635 1 2 -5.63781 0.67 -3.54301
636 1 2 -5.91393 0.118 -2.82801
637 1 2 -5.42394 0.586 -2.21101
638 1 2 -5.07189 1.485 -2.15301
639 1 2 -4.76891 1.08499 -2.97801
640 1 2 -4.47179 0.77201 -3.80801
641 1 2 -5.08385 0.629 -4.51002
642 1 2 -5.13488 0.60201 -5.45901
643 1 2 -4.26183 0.67501 -5.82601
644 1 2 -4.13781 0.594 -6.78501
645 1 2 -4.93395 0.277 -6.51301
646 1 2 -5.0338 0.896 -7.31101
647 1 2 -5.01696 1.457 -8.07301
648 1 2 -5.19494 2.027 -7.34802
649 1 2 -5.95983 1.443 -7.28601
650 1 2 -5.89586 0.85201 -6.50701
651 1 2 -5.94787 0.07401 -5.99501
652 1 2 -5.90294 -0.888 -5.77001
653 1 2 -6.61681 -1.433 -5.49301
654 1 2 -5.99181 -2.009 -6.00601
655 1 2 -5.51989 -2.65201 -6.42802
656 1 2 -5.91979 -3.406 -6.88601
657 1 2 -5.23497 -3.263 -7.53701
658 1 2 -4.79796 -3.33999 -6.67501
659 1 2 -3.93883 -3.68 -6.62301
660 1 2 -4.55187 -4.12401 -5.96301
661 1 2 -4.37389 -3.293 -5.70001
662 1 2 -4.91686 -3.266 -4.94801
663 1 2 -5.44079 -3.46 -5.75401
664 1 2 -5.96593 -2.899 -5.18901
665 1 2 -6.49279 -3.164 -5.98001
666 1 2 -7.0548 -2.328 -5.85301
667 1 2 -6.74791 -2.309 -6.73802
668 1 2 -6.08776 -2.558 -7.48501
669 1 2 -5.74596 -1.74 -7.12101
670 1 2 -4.94079 -2.199 -7.17802
671 1 2 -4.72692 -1.28801 -7.35902
672 1 2 -4.06896 -1.597 -6.83302
673 1 2 -3.18297 -1.123 -6.79901
674 1 2 -3.69787 -0.746 -7.48402
675 1 2 -4.50695 -0.168 -7.44201
676 1 2 -5.00182 0.221 -8.20101
677 1 2 -5.91491 0.687 -8.12602
678 1 2 -5.81481 0.07401 -7.37001
679 1 2 -6.63585 0.06301 -6.86801
680 1 2 -6.94787 -0.516 -6.11801
681 1 2 -6.54479 -1.21499 -6.58302
682 1 2 -6.40685 -0.805 -7.43301
683 1 2 -6.28698 -1.49701 -8.09301
684 1 2 -5.53185 -0.86799 -7.98802
685 1 2 -5.22594 -1.823 -8.11102
686 1 2 -4.7799 -1.68699 -8.96002
687 1 2 -4.59581 -0.966 -8.35301
688 1 2 -3.72594 -1.25599 -8.71501
689 1 2 -3.59777 -0.44999 -9.25601
690 1 2 -3.91979 -0.149 -8.37001
691 1 2 -3.44787 0.23999 -7.63201
692 1 2 -3.30797 0.00099004 -6.69502
693 1 2 -3.80993 -0.276 -5.88801
694 1 2 -4.38195 -0.64 -6.50901
695 1 2 -5.39586 -0.72101 -6.65202
696 1 2 -5.08483 -1.539 -6.30502
697 1 2 -4.47985 -2.349 -6.17102
698 1 2 -5.12291 -2.336 -5.53001
699 1 2 -5.02282 -1.47 -5.17001
700 1 2 -5.80089 -1.815 -4.84901
701 1 2 -6.66588 -2.25399 -4.89302
702 1 2 -7.52477 -2.647 -4.97702
703 1 2 -6.87877 -3.20601 -4.54101
704 1 2 -6.29186 -2.711 -3.87602
705 1 2 -7.12389 -2.40001 -3.85301
706 1 2 -7.47179 -1.651 -3.36601
707 1 2 -8.16295 -1.837 -2.77502
708 1 2 -8.26183 -2.503 -3.48602
709 1 2 -8.74279 -2.718 -2.64302
710 1 2 -8.00182 -3.36 -2.77601
711 1 2 -7.43297 -2.60299 -2.85401
712 1 2 -6.75792 -3.24299 -3.13201
713 1 2 -7.49987 -3.42 -3.70602
714 1 2 -7.4569 -4.248 -3.20701
715 1 2 -6.86193 -4.292 -3.99601
716 1 2 -7.66295 -4.59199 -4.36502
717 1 2 -7.34191 -5.212 -3.63401
718 1 2 -6.44079 -5.309 -3.85801
719 1 2 -6.10192 -5.378 -2.98101
720 1 2 -6.80895 -5.93 -2.54101
721 1 2 -6.89489 -6.433 -3.40101
722 1 2 -6.1798 -6.729 -2.76402
723 1 2 -5.7838 -6.136 -2.12901
724 1 2 -5.26891 -5.34401 -2.35301
725 1 2 -4.66295 -6.132 -2.07101
726 1 2 -4.72179 -6.143 -3.02201
727 1 2 -4.10094 -5.569 -2.75001
728 1 2 -3.45885 -4.981 -2.39302
729 1 2 -3.06579 -5.709 -2.89201
730 1 2 -3.3568 -6.125 -3.75102
731 1 2 -4.22179 -5.71 -3.86201
732 1 2 -4.71788 -6.477 -4.34501
733 1 2 -4.13976 -6.904 -3.69601
734 1 1 -5.07189 -7.114 -3.54701
735 1 2 -5.67394 -6.293 -3.59602
736 1 2 -5.24083 -5.448 -3.70301
737 1 2 -5.48497 -5.533 -4.63801
738 1 2 -6.26085 -4.882 -4.89001
739 1 2 -6.89293 -4.237 -5.06501
740 1 2 -6.20592 -4.201 -5.75302
741 1 2 -5.52599 -4.477 -6.36601
742 1 2 -5.26378 -5.127 -5.70101
743 1 2 -5.21788 -4.403 -5.14801
744 1 2 -5.91393 -3.94999 -4.67901
745 1 2 -5.72081 -4.60099 -4.08601
746 1 2 -5.99889 -3.822 -3.66101
747 1 2 -5.38878 -3.175 -4.01701
748 1 2 -4.88097 -3.99299 -4.14201
749 1 2 -4.61193 -4.81199 -4.40101
750 1 2 -4.18297 -4.10299 -4.96301
751 1 2 -3.53185 -4.016 -5.59301
752 1 2 -3.44079 -4.662 -6.29301
753 1 2 -3.25988 -5.294 -6.97601
754 1 1 -3.38585 -6.186 -6.67301
755 1 2 -2.67199 -6.52701 -6.10601
756 1 2 -1.7589 -6.48201 -5.74501
757 1 2 -2.07384 -5.667 -5.28802
758 1 2 -1.10997 -5.57499 -5.23301
759 1 2 -0.863884 -6.49099 -5.16801
760 1 2 -0.106804 -6.961 -5.67501
761 1 2 0.806036 -6.595 -5.69502
762 1 2 1.23109 -5.85299 -6.12602
763 1 1 1.40223 -5.918 -7.09802
764 1 2 0.407116 -5.899 -7.04402
765 1 2 0.351206 -4.977 -6.67102
766 1 2 0.632206 -3.983 -6.64801
767 1 2 -0.00890425 -3.24299 -6.51002
768 1 2 0.269176 -2.542 -7.05201
769 1 2 0.809206 -2.668 -6.19801
770 1 2 0.872196 -3.483 -5.67501
771 1 2 0.00403575 -3.145 -5.48802
772 1 2 -0.101924 -4.09199 -5.74201
773 1 2 0.139046 -4.02701 -4.85801
774 1 2 0.730106 -4.733 -4.60002
775 1 2 0.0760557 -4.573 -3.95402
776 1 2 -0.455924 -5.408 -4.17301
777 1 2 -0.698844 -6.278 -4.18501
778 1 2 -1.34997 -6.563 -3.55201
779 1 2 -0.606804 -7.182 -3.61502
780 1 2 -1.02282 -7.264 -4.48202
781 1 2 -0.0638343 -7.19101 -4.57101
782 1 2 0.0692157 -6.212 -4.79801
783 1 2 0.772106 -5.703 -5.09001
784 1 2 0.651006 -4.945 -5.61401
785 1 2 -0.119984 -5.087 -5.12101
786 1 2 -0.449824 -5.08101 -6.01501
787 1 2 0.0670257 -5.85 -5.85002
788 1 2 -0.581904 -6.225 -6.36502
789 1 2 -1.3839 -5.705 -6.51501
790 1 2 -1.60192 -4.89 -5.96902
791 1 2 -2.29796 -4.347 -6.09901
792 1 2 -2.27086 -4.823 -6.94102
793 1 2 -1.81896 -5.445 -7.57701
794 1 2 -2.34997 -5.89799 -6.91302
795 1 2 -2.61388 -5.40699 -6.11201
796 1 2 -3.26891 -5.755 -5.60501
797 1 2 -4.14586 -5.858 -6.08201
798 1 2 -4.35485 -5.05 -6.48501
799 1 2 -4.7528 -4.462 -7.11201
800 1 2 -4.18493 -3.892 -7.63101
801 1 2 -3.51378 -3.85299 -8.38702
802 1 2 -2.72399 -4.255 -8.73501
803 1 2 -2.06579 -4.50599 -8.07202
804 1 1 -2.86388 -5.072 -7.99201
805 1 2 -3.20885 -4.30301 -7.47001
806 1 2 -2.89782 -3.78199 -6.68501
807 1 2 -3.32897 -3.21 -7.36201
808 1 2 -4.04699 -2.724 -7.05902
809 1 2 -4.32091 -2.886 -7.92602
810 1 2 -4.02086 -1.923 -7.84201
811 1 2 -3.4359 -2.559 -8.32002
812 1 2 -3.17785 -2.201 -9.11001
813 1 2 -2.6068 -1.503 -8.88301
814 1 2 -2.45299 -2.18499 -8.25401
815 1 2 -2.93883 -1.578 -7.82202
816 1 2 -2.06994 -1.375 -7.54101
817 1 2 -1.86388 -0.806 -8.27902
818 1 2 -1.79577 0.164 -8.34101
819 1 2 -1.17687 0.836 -8.26202
820 1 2 -0.489864 0.456 -8.86201
821 1 2 0.369026 0.107 -8.57801
822 1 2 -0.0779943 -0.507 -9.21202
823 1 2 0.713016 -0.77501 -9.61801
824 1 2 1.22108 -0.391 -8.86001
825 1 2 1.74208 0.43 -8.73501
826 1 1 2.32704 -0.34401 -8.84402
827 1 1 3.05311 -0.65001 -8.26101
828 1 1 2.48817 -1.225 -7.60902
829 1 2 2.06312 -0.39799 -7.88101
830 1 2 1.41712 -1.08 -8.02902
831 1 2 2.21717 -1.41099 -8.57701
832 1 2 1.75013 -2.10701 -8.10002
833 1 2 2.00013 -2.05099 -7.17602
834 1 2 1.39906 -2.793 -7.13301
835 1 2 1.47108 -3.688 -7.43801
836 1 2 0.970096 -4.13299 -8.08102
837 1 2 1.09803 -4.833 -7.49101
838 1 2 0.152226 -4.934 -7.68901
839 1 2 -0.561884 -5.364 -7.23602
840 1 2 -1.00499 -4.86999 -7.91502
841 1 2 -1.27697 -4.653 -7.04501
842 1 2 -0.451774 -4.236 -6.96501
843 1 2 -1.0548 -4.02701 -6.25001
844 1 2 -1.85997 -3.50799 -6.43801
845 1 2 -1.89293 -3.87401 -7.25801
846 1 2 -1.06286 -3.694 -7.66801
847 1 2 -0.995964 -3.192 -6.89001
848 1 2 -0.938834 -3.045 -5.94702
849 1 2 -0.624874 -2.295 -6.45402
850 1 2 -1.6278 -2.408 -6.50601
851 1 2 -1.19591 -2.195 -7.34201
852 1 2 -0.527944 -2.682 -7.71202
853 1 2 -0.0247743 -3.492 -7.58502
854 1 2 -0.188834 -4.162 -8.23901
855 1 2 -0.764764 -3.619 -8.78201
856 1 2 -1.6588 -3.765 -8.89302
857 1 2 -1.57482 -2.99299 -8.29402
858 1 2 -2.05578 -2.792 -7.51701
859 1 2 -2.53283 -3.445 -8.07402
860 1 2 -2.5089 -3.05301 -8.91502
861 1 2 -1.94982 -2.367 -9.24902
862 1 2 -1.14879 -2.112 -9.66201
863 1 2 -0.797964 -2.446 -8.76202
864 1 2 -1.39586 -1.787 -8.36701
865 1 2 -0.838984 -1.043 -8.62301
866 1 2 -1.25988 -0.296 -9.09802
867 1 2 -1.66686 -1.14 -9.28301
868 1 2 -0.818964 -1.07899 -9.77001
869 1 2 -0.198844 -1.59199 -9.33401
870 1 2 -0.0118343 -2.48201 -9.43601
871 1 2 0.176156 -3.23401 -8.74501
872 1 2 0.831186 -3.03 -8.07202
873 1 2 0.882206 -2.28801 -8.71202
874 1 2 1.27211 -1.48401 -9.08702
875 1 2 0.524056 -1.158 -8.60202
876 1 2 -0.00988425 -0.751 -7.94502
877 1 2 -0.739864 -0.13501 -8.05401
878 1 2 -0.741814 0.46801 -7.33702
879 1 2 -0.0508943 0.861 -7.88201
880 1 2 -0.691764 1.55699 -7.63902
881 1 2 -0.533804 1.7 -8.61102
882 1 2 -1.1339 2.31301 -9.03001
883 1 2 -1.65587 1.46401 -8.99401
884 1 2 -2.27184 1.278 -8.30302
885 1 2 -2.43175 0.569 -7.60801
886 1 2 -1.65392 1.02401 -7.30702
887 1 2 -1.00084 1.22701 -6.66101
888 1 2 -1.87389 1.564 -6.42701
889 1 2 -2.12487 0.889 -5.78401
890 1 2 -2.37487 0.47299 -6.61401
891 1 2 -2.19884 -0.45399 -6.32402
892 1 2 -2.72179 0.019 -5.67001
893 1 2 -2.55382 0.32601 -4.73701
894 1 2 -2.74987 1.297 -5.06802
895 1 2 -3.4569 1.851 -5.25601
896 1 2 -3.58483 1.68801 -6.16902
897 1 2 -3.20299 0.89901 -5.99201
898 1 2 -3.20983 1.075 -6.93701
899 1 2 -2.54796 1.735 -7.28501
900 1 2 -3.26476 2.338 -7.31901
901 1 2 -3.10192 2.292 -8.22502
902 1 2 -3.02379 1.677 -8.91401
903 1 2 -3.29479 1.305 -8.03102
904 1 2 -4.06798 1.73 -8.49902
905 1 2 -4.44176 2.426 -7.93101
906 1 2 -4.31579 3.254 -7.45701
907 1 2 -4.05993 3.43801 -6.59301
908 1 1 -3.65783 4.01 -7.23301
909 1 2 -3.14489 3.306 -7.73802
910 1 2 -2.82091 3.304 -6.91001
911 1 2 -3.29796 2.72701 -6.30502
912 1 2 -2.68493 2.142 -5.87802
913 1 2 -2.1278 2.597 -6.51002
914 1 2 -1.40197 3.235 -6.37402
915 1 2 -0.832884 3.952 -6.28401