LAMMPS config file for CCM (\rho_F = 0.5)

4000 atoms
4012 bonds

3 atom types
2 bond types 

-100 100 xlo xhi
-100 100 ylo yhi
-100 100 zlo zhi 

Masses

1 1.00
2 1.00
3 1.00

Atoms

1 1 1 4.53899 8.414 -0.414
2 1 3 3.90199 7.928 -0.005
3 1 3 3.35599 7.579 0.636
4 1 3 2.37899 7.792 0.859
5 1 3 1.97699 8.714 0.991
6 1 3 2.53799 9.199 1.6
7 1 3 2.75199 9.606 0.768
8 1 3 2.13099 9.377 0.114
9 1 3 1.44399 9.766 0.637
10 1 1 1.23399 10.09 -0.305
11 1 1 1.27899 9.174 -0.679
12 1 1 0.863993 8.426 -1.118
13 1 1 0.308993 9.132 -1.436
14 1 1 -0.339007 8.796 -1.99
15 1 1 0.0409935 7.897 -1.727
16 1 1 -0.388007 7.127 -1.329
17 1 1 -0.355007 6.865 -0.405
18 1 3 0.310993 6.42 -0.969
19 1 3 0.984993 5.779 -0.62
20 1 3 1.41699 6.646 -0.802
21 1 3 0.780993 7.342 -1.068
22 1 3 0.0619935 7.807 -0.617
23 1 3 0.240993 8.658 -0.221
24 1 3 -0.636007 8.361 0.092
25 1 3 -1.21001 9.048 0.389
26 1 3 -0.874007 8.469 1.094
27 1 3 -0.767007 8.039 1.926
28 1 3 0.0329935 7.592 1.449
29 1 1 -0.666007 6.922 1.613
30 1 1 -1.48001 6.609 1.167
31 1 1 -1.56801 7.529 1.478
32 1 1 -1.06201 7.555 0.633
33 1 1 -1.92201 7.186 0.426
34 1 1 -1.24101 6.53 0.183
35 1 2 -1.89201 6.131 -0.419
36 1 2 -1.41501 6.815 -0.936
37 1 1 -0.823007 6.076 -1.136
38 1 2 -1.22701 5.221 -1.046
39 1 2 -1.81001 4.497 -1.248
40 1 2 -2.49901 3.85 -1.199
41 1 2 -3.06201 3.099 -1.204
42 1 2 -3.06301 2.775 -0.339
43 1 2 -3.79201 2.433 0.187
44 1 2 -4.30901 3.11 0.519
45 1 2 -4.89201 2.792 -0.171
46 1 2 -5.33701 3.655 -0.183
47 1 2 -5.96201 2.898 -0.25
48 1 2 -5.67901 2.048 -0.1
49 1 2 -5.60301 1.173 -0.398
50 1 2 -6.54201 1.185 -0.727
51 1 2 -6.07501 0.356996 -0.878
52 1 2 -5.89801 0.026996 0.026
53 1 2 -6.76801 0.490996 0.12
54 1 2 -6.75701 -0.422004 0.473
55 1 2 -6.41701 -0.647004 1.374
56 1 2 -6.66101 -0.594004 2.364
57 1 2 -7.19401 -0.078004 1.758
58 1 2 -7.59801 -0.941004 1.415
59 1 2 -7.82501 -0.967004 2.288
60 1 2 -8.27301 -0.234004 1.867
61 1 2 -8.74001 -0.554004 1.107
62 1 2 -9.57501 -0.681004 0.613
63 1 2 -9.53101 -0.286004 -0.233
64 1 1 -9.54601 0.424996 0.587
65 1 2 -8.61701 0.458996 0.351
66 1 2 -7.80501 0.719996 -0.015
67 1 2 -7.53301 0.767996 0.913
68 1 2 -7.85801 -0.077004 0.695
69 1 2 -7.59001 -0.298004 -0.228
70 1 2 -6.73701 -0.411004 -0.552
71 1 2 -7.11601 -1.218 -0.293
72 1 2 -7.82801 -1.144 0.352
73 1 2 -8.54001 -0.567004 0.066
74 1 2 -8.31601 -1.284 -0.552
75 1 2 -8.87101 -0.687004 -1.061
76 1 2 -8.41001 0.113996 -0.776
77 1 2 -8.46601 1.06 -0.993
78 1 2 -7.68901 1.569 -0.699
79 1 2 -7.45601 1.429 -1.605
80 1 2 -8.13501 1.987 -1.804
81 1 2 -7.60601 2.482 -1.214
82 1 2 -7.70901 2.768 -0.329
83 1 2 -7.94601 3.552 0.142
84 1 2 -8.55001 4.064 -0.335
85 1 2 -8.64101 3.164 -0.759
86 1 2 -8.50301 2.208 -0.719
87 1 2 -9.28501 1.745 -0.777
88 1 2 -9.30501 1.749 -1.754
89 1 2 -9.77501 0.942996 -1.977
90 1 2 -9.20901 0.408996 -1.388
91 1 2 -9.30401 0.755996 -0.516
92 1 2 -9.56501 1.377 0.214
93 1 2 -8.65501 1.536 0.307
94 1 2 -7.94501 2.217 0.469
95 1 2 -8.68401 2.713 0.191
96 1 2 -8.43601 3.115 0.99
97 1 2 -7.94401 2.449 1.542
98 1 2 -8.80201 2.11 1.405
99 1 2 -8.18701 1.406 1.399
100 1 2 -8.69301 0.620996 1.305
101 1 2 -8.93301 0.492996 2.198
102 1 2 -8.84401 1.432 2.277
103 1 2 -8.86601 1.659 3.193
104 1 2 -8.33701 2.413 2.782
105 1 2 -8.15301 3.198 2.266
106 1 2 -7.88501 4.081 2.585
107 1 2 -7.02201 3.636 2.489
108 1 2 -6.96101 3.836 3.42
109 1 2 -7.72001 3.246 3.291
110 1 2 -7.36101 2.609 2.635
111 1 2 -7.63601 1.738 2.342
112 1 2 -6.74001 1.967 2.132
113 1 2 -5.90401 1.782 2.643
114 1 2 -5.72501 1.367 1.811
115 1 2 -5.36201 0.876996 2.535
116 1 2 -5.32301 0.321996 3.309
117 1 2 -5.58901 -0.486004 2.827
118 1 2 -5.80001 -1.32 3.32
119 1 2 -6.08601 -2.164 3.027
120 1 2 -5.19401 -2.232 3.371
121 1 2 -5.46501 -3.126 3.625
122 1 2 -6.19401 -2.611 3.973
123 1 2 -5.93701 -1.74 4.272
124 1 2 -5.04801 -1.387 4.194
125 1 2 -4.76601 -1.095 3.332
126 1 2 -5.15301 -1.558 2.557
127 1 2 -6.01001 -1.437 2.254
128 1 2 -6.83201 -1.532 1.797
129 1 2 -7.15401 -1.831 2.686
130 1 2 -6.87801 -1.741 3.559
131 1 2 -7.69701 -1.6 4.114
132 1 2 -7.06301 -0.920004 4.401
133 1 2 -6.41901 -0.589004 3.744
134 1 2 -6.52601 0.094996 3.106
135 1 2 -6.81701 0.952996 2.588
136 1 2 -6.79201 1.033 1.628
137 1 2 -7.19501 1.806 1.175
138 1 2 -7.17401 1.54 0.267
139 1 2 -6.26501 1.381 0.642
140 1 2 -5.36701 1.565 0.823
141 1 2 -4.63401 1.718 0.163
142 1 2 -4.62601 2.238 0.925
143 1 2 -3.90301 2.66 1.388
144 1 2 -3.61501 3.134 2.18
145 1 2 -3.91901 3.711 1.503
146 1 2 -3.65801 4.104 0.679
147 1 2 -3.63401 4.751 -0.034
148 1 2 -4.32101 4.117 -0.178
149 1 2 -4.72701 4.147 0.63
150 1 2 -5.19701 3.428 0.974
151 1 2 -5.55701 2.59 0.687
152 1 2 -6.11601 2.188 1.282
153 1 2 -5.43701 2.387 1.921
154 1 2 -4.73701 3.023 1.81
155 1 2 -5.43901 3.38 2.395
156 1 2 -6.24301 2.834 2.536
157 1 2 -6.01801 3.315 3.305
158 1 2 -6.75201 2.751 3.614
159 1 2 -6.85601 1.845 3.195
160 1 2 -7.74001 1.941 3.463
161 1 2 -7.86701 1.036 3.101
162 1 2 -7.82201 0.775996 2.075
163 1 2 -7.54101 0.088996 2.754
164 1 2 -8.37201 -0.342004 2.981
165 1 2 -8.91101 -0.985004 2.4
166 1 2 -8.60301 -1.422 1.614
167 1 2 -8.68601 -2.328 1.299
168 1 2 -7.82401 -2 1.094
169 1 2 -7.85101 -2.117 2.04
170 1 2 -8.71901 -2.219 2.45
171 1 2 -8.16501 -3.019 2.544
172 1 2 -8.28101 -3.716 1.931
173 1 2 -7.74901 -3.057 1.503
174 1 2 -7.13901 -2.823 2.142
175 1 2 -6.23201 -2.518 1.954
176 1 2 -5.39501 -2.529 1.445
177 1 2 -5.94101 -2.929 0.753
178 1 2 -6.09201 -3.86 0.472
179 1 2 -6.26601 -4.145 -0.437
180 1 2 -7.08901 -3.881 0.01
181 1 1 -7.72401 -4.577 0.292
182 1 2 -7.97101 -3.857 0.889
183 1 2 -7.79401 -4.662 1.405
184 1 2 -7.00201 -4.251 1.12
185 1 2 -6.59201 -3.421 1.374
186 1 2 -5.73001 -3.498 1.809
187 1 2 -5.36101 -3.718 2.649
188 1 2 -5.34101 -2.799 2.514
189 1 2 -4.54701 -2.451 2.153
190 1 2 -4.54301 -3.178 1.539
191 1 2 -4.85701 -2.89 0.681
192 1 2 -4.33301 -2.219 1.047
193 1 2 -3.75501 -2.391 0.353
194 1 2 -4.36401 -2.924 -0.204
195 1 2 -3.99501 -3.054 -1.04
196 1 2 -4.72901 -3.655 -1.086
197 1 2 -4.70601 -4.593 -0.747
198 1 2 -5.43801 -4.547 -1.249
199 1 2 -4.98101 -4.162 -1.981
200 1 2 -4.26701 -4.311 -2.606
201 1 2 -5.09201 -4.616 -3.048
202 1 2 -5.55801 -4.175 -3.676
203 1 2 -6.48601 -4.198 -3.853
204 1 2 -6.20901 -4.818 -3.221
205 1 2 -7.03601 -5.318 -3.197
206 1 2 -7.42001 -4.708 -3.893
207 1 2 -7.68801 -4.261 -3.125
208 1 2 -6.84901 -3.811 -2.739
209 1 2 -5.92101 -3.965 -2.581
210 1 2 -6.22101 -3.265 -2.032
211 1 2 -6.40601 -4.139 -1.649
212 1 2 -5.94201 -4.909 -2.098
213 1 2 -6.93801 -4.949 -2.168
214 1 2 -7.50201 -5.242 -1.437
215 1 2 -7.26201 -4.507 -0.856
216 1 2 -6.53701 -5.05 -1.036
217 1 2 -6.94001 -5.775 -0.547
218 1 2 -6.05601 -6.249 -0.502
219 1 1 -6.17401 -6.058 -1.462
220 1 2 -5.59501 -6.762 -1.458
221 1 2 -5.08301 -7.299 -2.013
222 1 2 -4.30301 -7.532 -1.476
223 1 2 -4.50201 -6.638 -1.32
224 1 2 -4.29501 -5.677 -1.193
225 1 2 -3.71101 -5.096 -0.745
226 1 2 -3.73301 -4.811 0.142
227 1 2 -3.34101 -3.998 0.432
228 1 2 -3.94001 -3.327 0.708
229 1 2 -3.04701 -3.092 0.894
230 1 2 -3.57401 -2.742 1.569
231 1 2 -3.40601 -2.15 2.321
232 1 2 -3.51401 -3.153 2.48
233 1 2 -3.44401 -2.592 3.27
234 1 2 -3.08701 -1.717 3.163
235 1 2 -3.73501 -1.108 2.928
236 1 2 -4.25201 -1.979 3.021
237 1 2 -4.31301 -2.374 3.892
238 1 2 -5.04401 -2.359 4.595
239 1 2 -5.58301 -3.105 4.68
240 1 2 -6.37401 -3.3 5.194
241 1 2 -5.89701 -3.996 5.48
242 1 2 -5.49501 -3.203 5.93
243 1 2 -4.77501 -3.259 5.264
244 1 2 -3.96101 -3.597 5.147
245 1 2 -4.04101 -4.085 4.325
246 1 2 -4.60201 -3.298 4.211
247 1 2 -4.63301 -3.887 3.461
248 1 2 -4.48701 -3.047 3.037
249 1 2 -4.31501 -3.841 2.471
250 1 2 -4.91401 -4.265 1.836
251 1 2 -5.06101 -3.87 0.904
252 1 2 -4.21401 -4.285 0.95
253 1 2 -4.40101 -3.957 0.063
254 1 2 -3.76101 -4.005 -0.642
255 1 2 -3.29601 -3.259 -0.291
256 1 2 -2.93601 -3.385 -1.214
257 1 2 -2.30401 -3.213 -0.532
258 1 2 -2.32201 -3.591 0.361
259 1 2 -1.99801 -3.004 0.998
260 1 2 -1.15401 -2.591 0.9
261 1 2 -1.86801 -2.063 0.609
262 1 2 -1.56501 -2.488 -0.178
263 1 2 -1.74101 -2.556 -1.155
264 1 2 -1.55901 -2.064 -1.955
265 1 2 -2.32601 -1.669 -1.459
266 1 2 -2.27601 -0.714004 -1.596
267 1 2 -1.43201 -0.996004 -1.967
268 1 2 -2.24701 -1.275 -2.447
269 1 2 -3.09601 -1.379 -2.004
270 1 2 -2.65701 -2.17 -2.382
271 1 2 -3.52301 -2.259 -2.486
272 1 2 -3.34201 -2.425 -1.607
273 1 2 -2.94001 -2.387 -0.803
274 1 2 -2.74801 -2.345 0.114
275 1 2 -2.26301 -1.584 -0.308
276 1 2 -2.79201 -0.720004 -0.321
277 1 2 -3.23701 -1.358 -0.822
278 1 2 -3.94101 -1.994 -0.721
279 1 2 -4.58701 -1.866 -0.052
280 1 2 -5.37901 -1.926 0.512
281 1 2 -5.99401 -1.7 1.177
282 1 2 -6.90701 -1.535 0.729
283 1 2 -6.84901 -2.393 1.074
284 1 2 -7.14601 -3.017 0.528
285 1 2 -8.10101 -2.923 0.506
286 1 2 -8.15301 -3.645 -0.129
287 1 2 -8.58601 -3.03 -0.737
288 1 2 -8.72801 -2.302 -0.192
289 1 2 -8.88801 -1.562 0.48
290 1 2 -9.33801 -1.409 -0.374
291 1 2 -9.01201 -1.78 -1.213
292 1 2 -8.47501 -1.233 -1.879
293 1 2 -7.74201 -0.871004 -2.344
294 1 2 -7.95301 -0.170004 -2.99
295 1 2 -8.67001 -0.793004 -2.992
296 1 2 -9.03201 -0.407004 -2.185
297 1 2 -8.85701 0.441996 -2.574
298 1 2 -8.27701 0.930996 -2.006
299 1 2 -8.19701 -0.002004 -1.798
300 1 2 -7.36701 0.280996 -2.226
301 1 2 -6.71701 0.715996 -1.693
302 1 2 -7.40801 0.513996 -1.03
303 1 2 -7.43301 -0.479004 -1.305
304 1 2 -7.53401 -1.375 -1.288
305 1 2 -7.89401 -2.157 -0.912
306 1 2 -7.61601 -2.141 0.03
307 1 2 -7.47401 -2.976 -0.486
308 1 2 -6.77801 -3.361 -1.006
309 1 2 -6.42401 -3.043 -0.202
310 1 2 -6.36501 -2.149 0.072
311 1 2 -6.86601 -2.154 -0.778
312 1 2 -6.08301 -2.574 -1.221
313 1 2 -5.74901 -3.448 -1.082
314 1 2 -5.37501 -3.587 -0.247
315 1 2 -5.42901 -2.643 -0.224
316 1 2 -4.95701 -2.558 -0.988
317 1 2 -5.32501 -1.966 -1.711
318 1 2 -4.84401 -1.412 -1.09
319 1 2 -4.27801 -1.928 -1.711
320 1 2 -4.64901 -2.165 -2.564
321 1 2 -5.49901 -2.652 -2.679
322 1 2 -5.22301 -3.034 -1.881
323 1 2 -4.33601 -2.956 -2.069
324 1 2 -4.04401 -3.049 -2.976
325 1 2 -4.20101 -2.337 -3.541
326 1 2 -4.15201 -1.509 -3.98
327 1 2 -4.96901 -1.403 -4.405
328 1 2 -5.87301 -1.693 -4.425
329 1 2 -5.77601 -1.099 -3.676
330 1 2 -6.04701 -0.682004 -2.781
331 1 2 -5.52301 -1.486 -2.707
332 1 2 -4.73601 -1.207 -2.199
333 1 2 -5.56301 -0.891004 -1.796
334 1 2 -5.71501 -0.684004 -0.854
335 1 2 -6.38101 -1.31 -1.089
336 1 2 -5.68501 -1.731 -0.571
337 1 2 -6.09701 -1.055 0.001
338 1 2 -5.50101 -0.703004 0.733
339 1 2 -5.05701 -0.922004 -0.098
340 1 2 -4.16101 -0.906004 -0.401
341 1 2 -3.58301 -1.395 0.168
342 1 2 -2.76801 -1.278 0.647
343 1 2 -1.99601 -0.820004 0.467
344 1 2 -2.44901 -0.002004 0.511
345 1 2 -2.58101 -0.382004 1.37
346 1 2 -1.61301 -0.268004 1.354
347 1 2 -0.959007 -0.693004 1.946
348 1 2 -1.11901 -1.497 2.327
349 1 2 -1.46901 -2.154 2.885
350 1 2 -0.968007 -2.708 2.421
351 1 2 -1.74301 -2.394 1.86
352 1 2 -2.62001 -2.232 1.485
353 1 2 -2.17001 -1.435 1.425
354 1 2 -1.23901 -1.496 1.253
355 1 2 -0.946007 -0.746004 0.734
356 1 2 -1.29401 0.012996 0.229
357 1 2 -0.382007 0.175996 0.345
358 1 2 -0.755007 0.958996 -1.24989e-15
359 1 2 -1.38301 1.663 0.167
360 1 2 -1.97301 0.925996 -0.04
361 1 2 -1.52501 0.815996 0.849
362 1 2 -2.30501 0.684996 1.351
363 1 2 -2.85901 0.480996 2.086
364 1 2 -3.33001 0.387996 1.238
365 1 2 -4.23001 0.583996 1.092
366 1 2 -5.27201 0.482996 1.191
367 1 2 -6.18801 0.310996 1.191
368 1 2 -6.10601 0.208996 2.094
369 1 2 -5.40401 -0.386004 1.784
370 1 2 -4.56801 -0.479004 1.373
371 1 2 -4.47001 -1.176 0.734
372 1 2 -5.07601 -1.416 1.529
373 1 2 -4.21501 -1.398 1.893
374 1 2 -3.51001 -1.68 1.344
375 1 2 -3.09901 -1.157 2.006
376 1 2 -3.60801 -0.387004 1.992
377 1 2 -3.53001 -0.659004 1.092
378 1 2 -3.50701 -0.307004 0.23
379 1 2 -4.45401 -0.131004 0.316
380 1 2 -4.96801 0.708996 0.26
381 1 2 -5.09301 0.182996 -0.579
382 1 2 -4.09501 0.152996 -0.671
383 1 2 -3.45801 0.836996 -1.035
384 1 2 -2.95101 0.492996 -0.281
385 1 2 -3.77901 0.740996 0.231
386 1 2 -3.63801 1.557 -0.229
387 1 2 -2.69801 1.754 -0.27
388 1 2 -1.90101 2.047 -0.712
389 1 2 -2.03401 2.546 0.108
390 1 2 -1.92901 3.072 -0.714
391 1 2 -2.09201 3.862 -0.148
392 1 2 -2.02901 3.492 0.757
393 1 2 -2.77301 3.47 1.426
394 1 2 -3.20901 3.122 0.641
395 1 2 -2.93401 2.3 0.742
396 1 2 -3.65501 1.668 0.966
397 1 2 -2.90701 1.219 0.576
398 1 2 -2.14201 1.662 0.865
399 1 2 -1.90701 2.476 1.301
400 1 2 -1.20401 2.651 0.729
401 1 2 -1.16001 1.714 1.226
402 1 2 -0.469007 1.096 1.183
403 1 2 -0.188007 2.046 1.126
404 1 2 -0.452007 1.962 0.139
405 1 2 -0.931007 2.626 -0.369
406 1 2 -1.07801 3.519 0.054
407 1 2 -1.10601 3.709 -0.902
408 1 2 -0.424007 3.341 -1.568
409 1 2 -0.912007 2.516 -1.449
410 1 2 -0.0010065 2.354 -1.81
411 1 2 0.483993 3.031 -1.327
412 1 2 0.483993 3.946 -1.312
413 1 2 0.117993 4.442 -2.054
414 1 2 -0.424007 4.682 -2.834
415 1 2 -0.657007 3.755 -2.573
416 1 2 -0.841007 4.325 -1.829
417 1 2 -0.388007 4.458 -0.993
418 1 2 -0.904007 4.612 -0.186
419 1 2 -1.46501 4.412 0.547
420 1 2 -1.87801 5.131 0.034
421 1 2 -2.62801 4.659 -0.391
422 1 2 -2.87001 5.51 -0.081
423 1 2 -3.41501 5.472 -0.854
424 1 2 -3.97401 5.842 -1.492
425 1 2 -3.66501 6.744 -1.732
426 1 2 -3.24901 7.236 -2.429
427 1 2 -3.76601 7.912 -2.07
428 1 2 -4.38001 7.269 -2.419
429 1 2 -4.75301 6.466 -1.969
430 1 2 -5.22501 7.362 -1.631
431 1 2 -5.90901 7.343 -0.985
432 1 2 -5.70501 6.757 -0.291
433 1 2 -6.01601 5.945 -0.651
434 1 2 -6.70701 6.077 -1.284
435 1 2 -6.67601 6.745 -0.593
436 1 2 -6.48201 7.209 0.221
437 1 2 -6.38501 7.85 0.924
438 1 2 -5.82101 7.478 1.566
439 1 2 -5.61901 6.835 0.875
440 1 2 -6.33501 6.478 1.32
441 1 2 -5.60201 5.916 1.634
442 1 2 -6.14501 5.296 1.219
443 1 2 -7.07201 5.377 0.909
444 1 2 -6.52801 4.923 0.205
445 1 2 -6.22401 4.111 -0.195
446 1 2 -6.85801 3.414 -0.147
447 1 2 -7.08801 4.061 0.49
448 1 2 -6.84301 4.332 1.376
449 1 2 -7.59001 3.765 1.514
450 1 2 -7.32401 3.136 0.839
451 1 2 -6.91401 2.908 1.689
452 1 2 -6.15201 3.411 1.549
453 1 2 -6.20701 3.397 0.609
454 1 2 -6.64601 2.489 0.411
455 1 2 -6.81601 2.184 -0.549
456 1 2 -6.64701 2.965 -1.114
457 1 2 -6.20001 3.344 -1.901
458 1 2 -5.76801 3.585 -1.137
459 1 2 -4.93001 3.167 -1.126
460 1 2 -5.09801 3.348 -2.081
461 1 2 -5.64101 3.853 -2.674
462 1 2 -5.47301 4.268 -1.842
463 1 2 -4.87801 4.243 -1.112
464 1 2 -5.60601 4.777 -0.838
465 1 2 -5.49101 4.867 0.078
466 1 2 -5.82601 4.325 0.804
467 1 2 -5.80201 4.464 1.746
468 1 2 -4.91601 4.142 1.754
469 1 2 -4.39801 3.769 2.5
470 1 2 -4.18501 4.628 2.341
471 1 2 -4.08901 4.774 1.418
472 1 2 -3.52401 5.325 0.853
473 1 2 -3.03201 6.034 1.25
474 1 2 -2.28701 6.129 0.654
475 1 2 -2.94001 6.659 0.112
476 1 2 -2.40401 7.208 -0.554
477 1 2 -3.14801 7.431 -1.101
478 1 2 -2.37501 7.241 -1.693
479 1 2 -1.85901 7.851 -1.13
480 1 1 -1.78701 8.284 -2.012
481 1 2 -1.28501 9.07 -1.8
482 1 2 -1.92101 8.999 -1.09
483 1 2 -2.60001 9.149 -1.731
484 1 2 -2.82301 8.262 -1.798
485 1 2 -2.69401 8.29 -2.734
486 1 2 -2.22601 7.433 -2.766
487 1 2 -2.03201 6.571 -2.474
488 1 2 -1.92501 6.093 -1.626
489 1 2 -2.34001 5.428 -1.173
490 1 2 -2.84601 4.745 -1.553
491 1 2 -3.53501 5.027 -2.159
492 1 2 -4.18401 4.837 -1.525
493 1 2 -4.39501 5.153 -0.664
494 1 2 -5.05601 5.78 -0.285
495 1 2 -5.70901 5.859 0.414
496 1 2 -6.63401 6.111 0.213
497 1 2 -7.21301 5.63 -0.418
498 1 2 -6.65801 5.039 -0.941
499 1 2 -6.63501 4.167 -1.23
500 1 2 -7.37601 4.425 -1.656
501 1 2 -7.14301 5.353 -1.832
502 1 2 -7.12201 5.017 -2.755
503 1 2 -6.40401 5.498 -2.929
504 1 2 -6.65401 5.345 -3.91
505 1 2 -7.46601 4.991 -4.305
506 1 2 -7.31301 4.271 -3.629
507 1 2 -6.92101 3.402 -3.77
508 1 1 -7.42101 2.55 -3.906
509 1 2 -6.92901 2.755 -4.735
510 1 2 -7.82401 3.03 -4.767
511 1 2 -7.32901 3.878 -4.603
512 1 2 -6.47701 4.29 -4.271
513 1 2 -6.26701 3.545 -4.719
514 1 2 -5.52001 3.33 -5.301
515 1 2 -4.60901 3.714 -5.227
516 1 2 -3.85101 3.483 -4.706
517 1 2 -3.56401 2.592 -4.583
518 1 2 -4.06101 1.825 -4.342
519 1 2 -4.93901 1.558 -4.644
520 1 2 -5.70301 1.744 -4.13
521 1 2 -5.55101 1.975 -3.195
522 1 2 -6.48101 1.978 -2.811
523 1 2 -6.15501 2.886 -2.847
524 1 2 -5.24601 2.957 -3.072
525 1 2 -4.47601 2.315 -2.954
526 1 2 -4.81601 2.431 -3.851
527 1 2 -4.79201 3.358 -4.167
528 1 2 -5.36301 4.029 -4.507
529 1 2 -5.89401 3.782 -3.744
530 1 2 -6.35701 4.582 -3.254
531 1 2 -6.73201 3.818 -2.828
532 1 2 -6.41401 4.405 -2.224
533 1 2 -6.06001 5.21 -1.779
534 1 2 -5.28001 5.55 -1.437
535 1 2 -5.75901 6.426 -1.487
536 1 2 -5.68801 6.001 -2.341
537 1 2 -5.52301 6.956 -2.552
538 1 2 -6.15201 6.518 -3.198
539 1 2 -5.80101 6.317 -4.097
540 1 2 -5.41101 5.713 -3.427
541 1 2 -4.85001 6.317 -2.959
542 1 2 -3.93601 6.141 -2.601
543 1 2 -3.77901 6.818 -3.254
544 1 2 -3.98601 5.976 -3.732
545 1 2 -4.73801 6.241 -4.237
546 1 2 -4.68001 5.318 -4.29
547 1 2 -5.64301 5.106 -4.406
548 1 2 -5.35501 4.67 -3.633
549 1 2 -5.50801 4.97 -2.708
550 1 2 -4.73501 5.418 -2.344
551 1 2 -4.37701 5.083 -3.178
552 1 2 -3.53801 4.979 -3.67
553 1 2 -3.24101 5.537 -3.073
554 1 2 -2.72301 6.345 -3.262
555 1 2 -2.98701 6.538 -4.183
556 1 2 -2.69201 5.665 -4.045
557 1 2 -1.83101 5.407 -4.27
558 1 2 -1.82701 6.319 -3.96
559 1 2 -1.16101 7.006 -4.156
560 1 2 -0.652007 6.373 -3.689
561 1 2 -1.24301 6.927 -3.127
562 1 2 -1.42301 7.794 -3.46
563 1 2 -2.13801 7.313 -3.827
564 1 2 -3.07201 7.531 -3.678
565 1 2 -3.69801 7.999 -3.146
566 1 2 -4.66901 8.16 -2.946
567 1 2 -4.67701 7.375 -3.572
568 1 2 -3.98601 6.989 -4.213
569 1 2 -3.72001 6.45 -4.983
570 1 2 -3.67701 5.586 -4.646
571 1 2 -3.73401 4.586 -4.657
572 1 2 -4.30501 4.339 -3.937
573 1 2 -4.81201 3.873 -3.275
574 1 2 -4.59401 4.302 -2.417
575 1 2 -3.72001 4.222 -2.89
576 1 2 -3.09301 3.519 -2.911
577 1 2 -3.21201 3.852 -2.046
578 1 2 -4.05901 3.728 -1.585
579 1 2 -3.57201 4.276 -0.959
580 1 2 -3.21601 3.775 -0.254
581 1 2 -3.95201 3.241 -0.534
582 1 2 -3.79001 2.42 -1.017
583 1 2 -3.08601 1.894 -1.208
584 1 2 -2.56001 1.565 -1.956
585 1 2 -3.34401 0.988996 -2.029
586 1 2 -3.68301 1.671 -2.519
587 1 2 -4.16401 1.65 -1.688
588 1 2 -4.70401 2.332 -1.9
589 1 2 -5.67001 2.408 -2.116
590 1 2 -5.67001 2.383 -1.197
591 1 2 -4.91201 1.984 -0.819
592 1 2 -4.61001 1.086 -0.682
593 1 2 -4.76001 0.736996 -1.545
594 1 2 -5.53801 1.366 -1.371
595 1 2 -5.98401 1.333 -2.237
596 1 2 -6.53401 1.886 -1.657
597 1 2 -7.14001 2.518 -2.14
598 1 2 -7.34001 2.984 -2.865
599 1 2 -8.17101 2.866 -2.419
600 1 2 -8.38201 2.593 -3.35
601 1 2 -8.01501 3.467 -3.512
602 1 2 -7.84601 4.066 -2.619
603 1 2 -8.28201 3.775 -1.845
604 1 2 -7.37301 3.385 -1.871
605 1 2 -7.58101 3.625 -0.963
606 1 2 -7.40501 4.331 -0.395
607 1 2 -7.91801 4.892 0.187
608 1 2 -8.40601 4.411 0.851
609 1 2 -7.77201 4.819 1.452
610 1 2 -7.15201 4.894 2.203
611 1 2 -6.70201 5.774 2.024
612 1 2 -6.16901 5.19 2.528
613 1 2 -6.78301 4.973 3.304
614 1 2 -6.76001 4.846 4.223
615 1 2 -5.87601 4.64 4.634
616 1 2 -4.96201 4.505 4.788
617 1 2 -5.09801 4.611 3.91
618 1 2 -5.93001 4.432 3.594
619 1 2 -6.13101 4.169 2.671
620 1 2 -5.22001 4.433 2.765
621 1 2 -4.72001 5.196 3.13
622 1 2 -5.27101 5.894 2.795
623 1 2 -5.01401 5.174 2.142
624 1 2 -5.11201 5.068 1.188
625 1 2 -4.55301 5.182 0.393
626 1 2 -4.03801 5.829 0.012
627 1 2 -3.83401 6.47 0.697
628 1 2 -3.29401 7.244 0.963
629 1 2 -3.41701 8.247 0.901
630 1 2 -2.90301 7.924 0.118
631 1 2 -2.97001 8.464 -0.726
632 1 2 -3.89801 8.173 -0.614
633 1 2 -3.73601 7.343 -0.12
634 1 2 -3.65701 6.551 -0.666
635 1 2 -2.86201 6.404 -1.103
636 1 2 -2.93801 6.025 -2.008
637 1 2 -2.42501 5.341 -2.403
638 1 2 -1.45701 5.171 -2.163
639 1 2 -1.44001 4.439 -2.814
640 1 2 -2.14101 4.286 -2.224
641 1 2 -2.73701 4.424 -2.925
642 1 2 -2.18601 5.041 -3.359
643 1 2 -2.62001 4.546 -4.041
644 1 2 -3.26901 3.879 -3.868
645 1 2 -2.88301 3.05 -3.928
646 1 2 -2.44101 2.672 -3.212
647 1 2 -3.06101 2.479 -2.477
648 1 2 -3.71101 2.832 -2.017
649 1 2 -4.13401 3.264 -2.686
650 1 2 -3.98801 3.142 -3.614
651 1 2 -3.46901 2.301 -3.441
652 1 2 -2.96701 1.864 -4.075
653 1 2 -2.37701 2.371 -4.573
654 1 2 -2.80101 1.816 -5.229
655 1 2 -3.38401 1.349 -5.783
656 1 2 -3.44501 1.354 -6.703
657 1 2 -2.59301 1.45 -7.073
658 1 2 -2.42001 1.596 -6.214
659 1 2 -2.21401 2.481 -5.887
660 1 2 -2.94001 3.053 -5.322
661 1 2 -2.16001 3.559 -5.553
662 1 2 -1.65401 2.864 -5.089
663 1 2 -1.29901 2.105 -4.607
664 1 2 -1.78301 1.755 -5.323
665 1 2 -2.05301 1.271 -4.471
666 1 2 -1.97201 1.811 -3.688
667 1 2 -2.61001 1.586 -3.074
668 1 2 -2.44701 0.650996 -2.665
669 1 2 -1.92501 -0.163004 -2.573
670 1 2 -2.76901 -0.327004 -3.223
671 1 2 -3.01701 -0.340004 -2.31
672 1 2 -3.97201 -0.370004 -2.494
673 1 2 -3.82501 0.187996 -1.718
674 1 2 -3.16901 -0.392004 -1.251
675 1 2 -3.99001 -0.877004 -1.453
676 1 2 -4.73201 -0.321004 -1.496
677 1 2 -5.06001 -0.126004 -2.388
678 1 2 -5.70601 0.339996 -1.894
679 1 2 -6.42401 -0.294004 -1.752
680 1 2 -6.84701 -1.074 -2.029
681 1 2 -6.32301 -1.87 -2.12
682 1 2 -6.55101 -1.607 -2.985
683 1 2 -6.77701 -1.345 -3.885
684 1 2 -6.41301 -0.759004 -4.557
685 1 2 -6.91201 -0.263004 -5.149
686 1 2 -7.51001 0.048996 -5.869
687 1 2 -7.52501 0.436996 -6.703
688 1 2 -7.66801 1.128 -6.016
689 1 2 -8.33701 0.912996 -5.395
690 1 2 -8.65301 1.014 -4.465
691 1 2 -7.78801 0.596996 -4.154
692 1 2 -8.04201 0.008996 -4.811
693 1 2 -8.23701 -0.297004 -3.98
694 1 2 -8.82801 0.330996 -3.678
695 1 2 -8.99401 1.172 -3.345
696 1 2 -8.60301 1.722 -2.722
697 1 2 -7.69401 1.895 -2.929
698 1 2 -7.14901 1.204 -2.638
699 1 2 -7.96501 0.836996 -3.083
700 1 2 -7.13401 0.446996 -3.358
701 1 2 -6.42301 0.347996 -2.671
702 1 2 -6.19601 1.051 -3.336
703 1 2 -5.41201 0.794996 -2.993
704 1 2 -5.02601 1.51 -2.441
705 1 2 -4.42101 0.726996 -2.495
706 1 2 -4.32901 0.244996 -3.232
707 1 2 -3.37801 0.450996 -3.042
708 1 2 -3.70001 1.235 -3.481
709 1 2 -4.64501 1.344 -3.46
710 1 2 -4.39201 0.743996 -4.143
711 1 2 -4.90901 0.372996 -4.78
712 1 2 -5.52201 0.650996 -4.164
713 1 2 -6.47001 0.624996 -4.308
714 1 2 -6.31501 -0.113004 -3.64
715 1 2 -5.32401 -0.110004 -3.458
716 1 2 -4.76301 -0.872004 -3.354
717 1 2 -4.51101 -0.455004 -4.192
718 1 2 -5.45601 -0.496004 -4.423
719 1 2 -5.91701 0.020996 -5.033
720 1 2 -5.19401 -0.062004 -5.704
721 1 2 -4.60201 -0.760004 -5.346
722 1 2 -3.73401 -0.707004 -5.845
723 1 2 -3.05601 -1.389 -5.852
724 1 2 -2.90301 -1.62 -4.927
725 1 2 -2.23001 -2.061 -5.386
726 1 2 -2.71601 -2.674 -4.827
727 1 2 -2.22901 -2.757 -4.013
728 1 2 -1.98201 -1.932 -4.406
729 1 2 -1.24201 -1.753 -4.992
730 1 2 -0.467007 -1.251 -4.847
731 1 2 0.279993 -1.803 -5.177
732 1 2 -0.379007 -2.291 -5.588
733 1 2 -0.493007 -3.222 -5.613
734 1 1 -0.223007 -2.968 -6.514
735 1 2 -0.121007 -3.454 -7.299
736 1 2 -1.01501 -3.055 -7.294
737 1 2 -1.03901 -3.779 -6.618
738 1 2 -0.816007 -4.719 -6.613
739 1 2 -1.51601 -4.896 -5.999
740 1 2 -1.84301 -5.743 -6.299
741 1 2 -2.47201 -5.053 -6.458
742 1 2 -2.45401 -4.39 -5.741
743 1 2 -1.83101 -4.51 -4.981
744 1 2 -1.52401 -4.354 -4.091
745 1 2 -1.40101 -3.513 -3.626
746 1 2 -1.32201 -3.716 -2.724
747 1 2 -0.423007 -3.276 -2.57
748 1 2 -1.08301 -3.009 -1.972
749 1 2 -2.01501 -3.066 -2.117
750 1 2 -2.27001 -3.182 -3.028
751 1 2 -3.07101 -2.842 -3.339
752 1 2 -3.10801 -2.036 -3.854
753 1 2 -3.04501 -1.486 -3.111
754 1 1 -3.93401 -1.466 -2.952
755 1 2 -3.73401 -0.719004 -3.453
756 1 2 -2.99201 -1.025 -3.963
757 1 2 -3.57601 -0.800004 -4.601
758 1 2 -3.86601 0.094996 -4.888
759 1 2 -3.56401 0.181996 -4.006
760 1 2 -2.78101 0.760996 -3.868
761 1 2 -3.35601 1.023 -4.651
762 1 2 -4.16701 1.062 -5.234
763 1 1 -4.33201 1.242 -6.177
764 1 2 -5.17201 1.027 -5.679
765 1 2 -5.89401 1.173 -5.107
766 1 2 -5.97901 2.2 -5.076
767 1 2 -5.69401 2.82 -4.372
768 1 2 -6.44101 2.44 -3.806
769 1 2 -6.67901 1.757 -4.485
770 1 2 -7.16701 1.393 -3.7
771 1 2 -8.09601 1.619 -3.764
772 1 2 -7.68201 1.746 -4.686
773 1 2 -7.68901 2.179 -5.54
774 1 2 -6.91601 1.556 -5.494
775 1 2 -7.14501 0.789996 -5.079
776 1 2 -6.53501 0.524996 -5.78
777 1 2 -5.83801 0.592996 -6.404
778 1 2 -5.28301 1.34 -6.754
779 1 2 -4.37501 1.518 -7.161
780 1 2 -4.44601 1.663 -8.099
781 1 2 -5.26801 2.016 -7.655
782 1 2 -5.12801 2.494 -6.797
783 1 2 -5.78701 2.8 -6.214
784 1 2 -6.70701 2.635 -5.845
785 1 2 -7.08201 3.435 -5.626
786 1 2 -6.31501 3.966 -5.859
787 1 2 -6.16401 4.729 -5.308
788 1 2 -5.17301 4.705 -5.38
789 1 2 -4.33001 5.094 -5.409
790 1 2 -4.75901 5.879 -5.264
791 1 2 -4.11901 5.734 -6.138
792 1 2 -4.73501 5.106 -6.385
793 1 2 -5.18101 4.529 -6.897
794 1 2 -5.24001 3.878 -6.142
795 1 2 -4.78801 3.066 -6.012
796 1 2 -3.89101 3.103 -5.689
797 1 2 -3.28201 2.391 -6.071
798 1 2 -4.17201 2.226 -6.394
799 1 2 -4.09401 2.046 -5.46
800 1 2 -4.68501 2.608 -5.007
801 1 2 -5.11601 2.114 -5.754
802 1 2 -5.92801 1.75 -6.075
803 1 2 -6.14001 2.019 -6.953
804 1 1 -7.03401 2.078 -6.57
805 1 2 -6.76401 1.16 -6.732
806 1 2 -6.12801 0.936996 -7.383
807 1 2 -6.67301 0.269996 -7.732
808 1 2 -6.58801 -0.056004 -6.753
809 1 2 -6.33401 -0.702004 -7.374
810 1 2 -5.85401 -1.378 -6.968
811 1 2 -6.39601 -1.809 -6.336
812 1 2 -7.05701 -2.493 -6.263
813 1 2 -7.30301 -2.735 -5.411
814 1 2 -6.88301 -3.504 -5.856
815 1 2 -6.27201 -3.329 -5.207
816 1 2 -5.69701 -3.663 -4.564
817 1 2 -5.64501 -2.701 -4.583
818 1 2 -4.71001 -2.646 -4.535
819 1 2 -4.62401 -3.518 -4.766
820 1 2 -4.87201 -4.387 -4.515
821 1 2 -5.76601 -4.685 -4.578
822 1 2 -6.62001 -4.435 -4.9
823 1 2 -6.59101 -5.296 -4.456
824 1 2 -6.00201 -5.602 -5.14
825 1 2 -5.59201 -6.29 -4.645
826 1 1 -5.29501 -6.82 -5.431
827 1 1 -4.45101 -7.009 -5.023
828 1 1 -4.18301 -7.021 -5.911
829 1 2 -3.37601 -6.806 -5.452
830 1 2 -4.06701 -6.045 -5.31
831 1 2 -4.67801 -6.071 -5.975
832 1 2 -4.96801 -5.415 -6.755
833 1 2 -4.33801 -4.876 -7.183
834 1 2 -3.92401 -4.25 -7.711
835 1 2 -4.10501 -3.975 -6.756
836 1 2 -3.63201 -3.214 -7.076
837 1 2 -2.87201 -2.721 -7.489
838 1 2 -2.93101 -1.792 -7.448
839 1 2 -3.77901 -2.213 -7.558
840 1 2 -4.39901 -1.972 -8.163
841 1 2 -5.37101 -1.993 -7.954
842 1 2 -5.47401 -2.636 -7.173
843 1 2 -4.60701 -2.943 -7.483
844 1 2 -5.10401 -3.712 -7.301
845 1 2 -5.07701 -4.361 -6.562
846 1 2 -5.78301 -3.722 -6.368
847 1 2 -6.05101 -4.505 -5.778
848 1 2 -5.26001 -4.173 -5.447
849 1 2 -5.24501 -5.074 -5.635
850 1 2 -4.85201 -5.54 -4.858
851 1 2 -4.21801 -4.858 -5.144
852 1 2 -4.25301 -4.897 -6.072
853 1 2 -3.40701 -5.248 -5.842
854 1 2 -3.48501 -4.276 -5.812
855 1 2 -4.27201 -3.872 -5.754
856 1 2 -4.86901 -3.301 -6.344
857 1 2 -5.14901 -3.033 -5.487
858 1 2 -4.33101 -2.622 -5.574
859 1 2 -4.28201 -2.493 -6.493
860 1 2 -4.72201 -1.899 -7.015
861 1 2 -5.27301 -2.298 -6.241
862 1 2 -6.05901 -2.753 -6.051
863 1 2 -6.02201 -2.103 -5.427
864 1 2 -5.06801 -1.934 -5.343
865 1 2 -5.60501 -1.134 -5.271
866 1 2 -6.22601 -0.682004 -5.784
867 1 2 -7.00901 -0.957004 -6.227
868 1 2 -6.87701 -1.429 -5.408
869 1 2 -6.76801 -2.141 -4.657
870 1 2 -7.68201 -1.89 -4.453
871 1 2 -7.46201 -0.982004 -4.618
872 1 2 -7.20301 -0.314004 -4.075
873 1 2 -7.05501 -0.689004 -3.144
874 1 2 -7.78701 -1.22 -3.527
875 1 2 -8.14601 -2.137 -3.404
876 1 2 -8.65001 -2.489 -2.719
877 1 2 -8.20001 -2.297 -1.9
878 1 2 -7.45101 -1.882 -2.339
879 1 2 -7.07601 -2.515 -1.783
880 1 2 -7.80501 -3.122 -1.53
881 1 2 -8.09301 -3.988 -1.204
882 1 2 -7.46401 -4.103 -1.881
883 1 2 -8.16601 -3.747 -2.451
884 1 2 -7.59701 -2.977 -2.585
885 1 2 -6.69401 -2.675 -2.821
886 1 2 -7.13301 -2.456 -3.631
887 1 2 -7.31101 -3.376 -3.521
888 1 2 -8.24301 -3.203 -3.512
889 1 2 -7.75301 -2.986 -4.361
890 1 2 -7.39301 -3.812 -4.515
891 1 2 -6.70901 -3.175 -4.338
892 1 2 -6.24701 -3.256 -3.534
893 1 2 -6.12101 -2.303 -3.649
894 1 2 -5.16701 -2.033 -3.577
895 1 2 -5.15101 -3.036 -3.621
896 1 2 -4.93301 -3.549 -2.873
897 1 2 -4.47801 -3.961 -3.638
898 1 2 -3.80001 -4.166 -4.346
899 1 2 -3.78901 -3.197 -4.067
900 1 2 -3.75201 -2.334 -4.626
901 1 2 -3.96701 -1.653 -5.212
902 1 2 -4.32701 -1.559 -6.063
903 1 2 -5.17301 -1.249 -6.158
904 1 2 -4.53201 -0.639004 -6.489
905 1 2 -5.41501 -0.380004 -6.769
906 1 2 -5.63301 0.018996 -7.609
907 1 2 -5.08501 0.865996 -7.859
908 1 1 -4.36801 0.559996 -8.394
909 1 2 -3.93801 0.654996 -7.528
910 1 2 -4.49401 -0.143004 -7.488
911 1 2 -4.70701 0.468996 -6.74
912 1 2 -4.26501 0.209996 -5.933
913 1 2 -3.62801 0.004996 -6.684
914 1 2 -2.94801 0.436996 -7.219
915 1 2 -2.64501 0.599996 -6.312
916 1 2 -3.21901 0.377996 -5.671
917 1 2 -2.49501 0.837996 -5.312
918 1 2 -2.60201 0.148996 -4.714
919 1 2 -2.82701 -0.541004 -5.3
920 1 2 -2.11001 -0.816004 -4.777
921 1 2 -1.26501 -0.759004 -4.306
922 1 2 -0.554007 -0.225004 -4.642
923 1 2 -0.786007 0.253996 -3.854
924 1 2 -1.23701 -0.399004 -3.356
925 1 2 -1.98001 -0.185004 -3.838
926 1 2 -1.72701 0.671996 -3.491
927 1 2 -0.913007 0.575996 -2.882
928 1 2 -0.749007 -0.142004 -2.248
929 1 2 -1.40401 -0.032004 -1.531
930 1 2 -1.47101 0.816996 -2.066
931 1 2 -1.51701 1.646 -1.704
932 1 2 -0.607007 1.567 -1.976
933 1 2 -0.385007 0.757996 -1.367
934 1 2 0.400993 1.304 -1.614
935 1 2 0.996993 1.982 -1.205
936 1 2 1.01599 2.337 -2.119
937 1 2 0.624993 2.341 -2.937
938 1 2 0.675993 1.464 -2.627
939 1 2 -0.200007 1.676 -2.908
940 1 2 0.0239935 0.983996 -3.431
941 1 2 -0.855007 1.378 -3.75
942 1 2 -0.110007 1.954 -3.936
943 1 2 0.563993 2.55 -4.113
944 1 2 1.50199 2.398 -3.883
945 1 2 1.47799 2.493 -4.823
946 1 2 0.601993 2.571 -5.178
947 1 2 0.139993 2.185 -5.889
948 1 2 -0.267007 1.966 -5.01
949 1 2 0.109993 1.159 -5.439
950 1 2 0.289993 0.246996 -5.246
951 1 2 0.225993 0.197996 -6.182
952 1 2 0.130993 1.124 -6.464
953 1 2 -0.763007 0.738996 -6.539
954 1 2 -0.711007 0.341996 -5.666
955 1 2 -0.875007 -0.292004 -6.374
956 1 2 -1.04901 -0.021004 -7.261
957 1 2 -0.244007 -0.365004 -7.762
958 1 2 0.0349935 0.363996 -7.138
959 1 2 0.0879935 1.252 -7.515
960 1 2 1.01099 1.214 -7.122
961 1 2 1.27799 1.826 -6.518
962 1 2 1.46899 2.579 -5.987
963 1 2 0.846993 3.07 -6.557
964 1 2 0.388993 3.048 -7.328
965 1 2 0.457993 2.151 -6.999
966 1 2 -0.341007 2.721 -6.656
967 1 2 -0.618007 1.816 -6.945
968 1 2 -1.50801 1.702 -6.628
969 1 2 -1.60701 1.872 -7.61
970 1 2 -1.10401 1.033 -7.502
971 1 2 -1.75001 0.654996 -6.974
972 1 2 -1.93701 -0.244004 -6.748
973 1 2 -2.72701 -0.487004 -6.345
974 1 2 -3.01601 -0.655004 -7.222
975 1 2 -3.53601 -1.168 -6.769
976 1 2 -4.15701 -1.19 -7.455
977 1 2 -5.05201 -0.964004 -7.664
978 1 2 -5.57401 -0.669004 -8.468