LAMMPS config file Copolymer without Loops

4000 atoms
3999 bonds

2 atom types
1 bond types 

-100 100 xlo xhi
-100 100 ylo yhi
-100 100 zlo zhi 

Masses

1 1.00
2 1.00

Atoms

1 1 1 -2.89099 0.652001 -7.61302
2 1 1 -2.91785 -0.0319895 -6.97801
3 1 1 -3.69397 0.416001 -6.90801
4 1 1 -4.3468 -0.180999 -7.23802
5 1 1 -4.54382 -1.02 -6.81802
6 1 1 -4.85095 -1.789 -6.39401
7 1 1 -4.24988 -2.52099 -6.39102
8 1 1 -4.51379 -2.388 -7.33502
9 1 1 -3.76477 -1.92399 -7.04602
10 1 1 -3.50085 -1.009 -7.20201
11 1 1 -2.8988 -1.46 -7.72001
12 1 1 -2.63 -0.514999 -7.86502
13 1 1 -2.82385 0.135001 -8.49601
14 1 1 -3.51477 -0.100989 -7.85202
15 1 1 -3.49597 -0.869989 -8.30201
16 1 1 -4.29895 -1.218 -7.90002
17 1 1 -4.52698 -0.402009 -8.32002
18 1 1 -5.17297 -0.920999 -8.77502
19 1 1 -4.92688 -1.86999 -8.43301
20 1 1 -4.53796 -2.765 -8.45001
21 1 1 -4.85193 -3.466 -7.83001
22 1 1 -4.41687 -4.24 -7.39401
23 1 1 -4.34192 -3.432 -6.90701
24 1 1 -3.81189 -3.134 -7.65801
25 1 1 -3.39783 -3.74299 -7.10202
26 1 1 -3.28992 -2.889 -6.71801
27 1 1 -2.75989 -2.102 -6.73402
28 1 1 -2.93982 -1.261 -6.38201
29 1 1 -2.276 -1.139 -7.00701
30 1 1 -1.40295 -0.928009 -6.75601
31 1 1 -1.65198 -0.0479995 -6.39701
32 1 1 -1.31189 0.261001 -5.53701
33 1 1 -0.318966 -0.102989 -5.54402
34 1 1 0.551154 0.0540005 -5.98901
35 1 2 0.863164 -0.581999 -6.61701
36 1 2 1.00305 -1.403 -6.20901
37 1 1 1.89002 -1.636 -6.13101
38 1 2 2.6532 -1.38299 -5.62402
39 1 2 2.80701 -0.840999 -4.81101
40 1 2 3.69202 -0.721999 -4.43901
41 1 2 4.14905 -1.388 -3.86601
42 1 2 4.97009 -1.35901 -3.31802
43 1 2 5.1261 -0.866999 -4.17401
44 1 2 5.48206 -0.158989 -4.68701
45 1 2 5.50818 0.380011 -3.95101
46 1 2 6.43103 0.0420005 -4.12602
47 1 2 6.86609 -0.00699945 -4.93701
48 1 2 6.99402 0.864001 -4.60401
49 1 2 6.30701 1.14901 -4.02502
50 1 2 6.36511 1.608 -3.11601
51 1 2 5.49817 1.345 -3.55001
52 1 2 4.724 1.11901 -4.12301
53 1 2 4.81116 0.818001 -5.04301
54 1 2 5.53919 1.414 -4.73402
55 1 2 6.28601 1.629 -5.28401
56 1 2 7.245 1.702 -5.14901
57 1 2 6.79919 2.226 -4.45402
58 1 2 6.00012 2.25701 -3.91502
59 1 2 5.37415 2.967 -3.87501
60 1 2 4.84119 2.16899 -3.56602
61 1 2 4.02722 2.07601 -3.98501
62 1 2 3.95203 2.651 -4.73802
63 1 2 4.328 3.11299 -4.08102
64 1 1 4.12122 2.795 -3.16101
65 1 2 3.96716 3.23 -2.37501
66 1 2 4.651 2.53099 -2.24601
67 1 2 4.07922 2.556 -1.49002
68 1 2 3.49207 3.249 -1.53701
69 1 2 3.87219 4.084 -1.64601
70 1 2 4.72107 4.483 -1.44201
71 1 2 5.25501 5.05899 -2.04002
72 1 2 5.46912 4.78501 -2.96501
73 1 2 5.56213 4.09101 -2.26402
74 1 2 4.57214 4.249 -2.49601
75 1 2 3.797 4.773 -2.63902
76 1 2 3.19202 4.058 -2.48202
77 1 2 3.07605 3.219 -2.99002
78 1 2 3.151 2.427 -3.49401
79 1 2 2.96301 2.33699 -4.45201
80 1 2 2.1781 2.53701 -4.82101
81 1 2 2.29602 2.797 -5.71401
82 1 2 1.36511 2.89301 -5.84101
83 1 2 0.810184 2.653 -5.00102
84 1 2 1.04407 3.58699 -5.07002
85 1 2 0.128054 3.761 -5.21501
86 1 2 0.413214 3.11901 -5.84701
87 1 2 0.355104 3.32601 -6.78501
88 1 2 0.313114 2.887 -7.67501
89 1 2 0.085084 2.247 -8.39501
90 1 2 0.599004 1.80001 -7.68202
91 1 2 1.10803 2.181 -8.37602
92 1 2 1.74011 2.74001 -7.92701
93 1 2 1.60217 1.91001 -7.46101
94 1 2 1.07312 2.566 -6.84701
95 1 2 0.221074 2.224 -6.63201
96 1 2 0.768194 2.00901 -5.90701
97 1 2 1.17322 1.435 -6.58901
98 1 2 1.8551 2.10601 -6.37802
99 1 2 2.39124 1.41001 -6.61601
100 1 2 1.92615 1.11299 -5.87802
101 1 2 2.50208 1.77201 -5.56602
102 1 2 3.18103 1.414 -5.02902
103 1 2 3.21204 1.295 -4.06701
104 1 2 2.37512 1.454 -4.43301
105 1 2 2.07117 0.732001 -3.87802
106 1 2 2.08118 -0.150009 -3.61102
107 1 2 2.0282 -0.971999 -4.11601
108 1 2 1.86121 -1.32899 -3.15202
109 1 2 1.44006 -0.533989 -2.82101
110 1 2 0.631234 -0.115989 -2.46401
111 1 2 -0.021846 -0.543999 -3.04602
112 1 2 0.542114 -1.17801 -2.57301
113 1 2 1.30603 -1.466 -2.02502
114 1 2 2.15418 -1.009 -2.04901
115 1 2 2.56604 -0.285989 -2.58201
116 1 2 1.92712 0.428001 -2.81201
117 1 2 2.68713 0.808991 -2.44401
118 1 2 2.98206 0.480001 -3.25001
119 1 2 3.85217 0.617011 -3.60501
120 1 2 4.64124 0.616001 -3.12202
121 1 2 4.38513 1.45101 -2.91101
122 1 2 3.44617 1.52001 -2.99801
123 1 2 3.60413 2.248 -2.42301
124 1 2 2.74304 1.87599 -2.34201
125 1 2 2.26111 2.493 -2.81101
126 1 2 2.68713 2.971 -2.13001
127 1 2 2.14807 3.722 -2.47401
128 1 2 1.79407 3.358 -3.22901
129 1 2 1.40711 3.038 -4.05902
130 1 2 1.38513 3.995 -3.90402
131 1 2 2.06604 4.58499 -4.05801
132 1 2 2.60706 4.05899 -3.43501
133 1 2 3.36804 4.61701 -3.52502
134 1 2 3.93201 3.898 -3.24401
135 1 2 4.19421 4.18 -4.15402
136 1 2 5.00818 3.90399 -3.61901
137 1 2 4.99915 3.38201 -2.85801
138 1 2 5.63416 3.032 -2.22001
139 1 2 5.61023 2.485 -2.95901
140 1 2 5.37415 1.80699 -2.44702
141 1 2 5.55408 0.834991 -2.52702
142 1 2 6.21301 0.478001 -3.14801
143 1 2 6.90002 -0.175989 -3.09101
144 1 2 7.20813 0.672001 -3.41401
145 1 2 7.46912 0.0240105 -4.04501
146 1 2 8.37317 0.103001 -3.74902
147 1 2 8.00305 0.0880005 -2.86502
148 1 2 8.61609 -0.666999 -2.67802
149 1 2 8.92004 -0.877999 -3.57301
150 1 2 8.44519 -1.64599 -3.09501
151 1 2 9.1991 -1.72 -2.51301
152 1 2 9.56116 -1.92599 -3.36801
153 1 2 8.95618 -2.571 -3.68301
154 1 2 8.62219 -1.808 -4.17802
155 1 2 8.18201 -2.322 -4.83401
156 1 2 8.46716 -1.528 -5.31802
157 1 2 7.73401 -1.807 -5.89302
158 1 2 7.12805 -1.02299 -5.89601
159 1 2 7.29602 -0.0960095 -6.11901
160 1 2 7.15418 0.685001 -6.66302
161 1 2 6.75818 0.854011 -5.74601
162 1 2 5.89124 0.571991 -5.30801
163 1 2 5.23108 -0.0380095 -5.72102
164 1 2 4.31213 0.0990005 -5.92701
165 1 2 4.09607 0.735001 -6.62701
166 1 2 4.36902 1.603 -6.45001
167 1 2 4.61511 1.69901 -7.32801
168 1 2 5.33411 1.15399 -7.05102
169 1 2 4.70422 0.629001 -7.48101
170 1 2 4.96521 0.0580005 -6.80601
171 1 2 5.79211 0.185001 -7.34301
172 1 2 5.98303 0.106011 -6.42901
173 1 2 6.2511 -0.433999 -5.65801
174 1 2 6.22009 -0.885009 -4.74401
175 1 2 5.39319 -1.10901 -5.18601
176 1 2 5.45715 -1.811 -5.82601
177 1 2 5.96106 -2.578 -5.63601
178 1 2 6.73523 -2.642 -6.17701
179 1 2 7.09314 -2.434 -5.27502
180 1 2 6.49915 -1.727 -5.43301
181 1 1 6.36804 -1.533 -6.36801
182 1 2 6.6261 -0.702999 -6.75201
183 1 2 5.83508 -0.822999 -7.29701
184 1 2 5.453 -0.891999 -6.47001
185 1 2 5.15002 -1.696 -6.94702
186 1 2 5.25501 -2.587 -6.68601
187 1 2 4.78919 -3.272 -6.09501
188 1 2 5.40808 -3.681 -6.70802
189 1 2 6.172 -3.70601 -6.12301
190 1 2 5.51404 -4.358 -5.96202
191 1 2 4.75916 -4.987 -6.08102
192 1 2 4.48108 -4.201 -5.56501
193 1 2 4.04016 -4.906 -5.10002
194 1 2 4.55505 -5.208 -4.36201
195 1 2 5.1471 -5.45601 -5.15202
196 1 2 4.78919 -6.046 -5.85002
197 1 2 4.22913 -6.154 -5.07101
198 1 2 3.9762 -6.79899 -4.53401
199 1 2 3.29919 -7.057 -5.08901
200 1 2 3.29114 -7.623 -4.20602
201 1 2 2.48303 -7.63 -3.66401
202 1 2 2.27112 -6.72101 -3.46301
203 1 2 2.65418 -6.71499 -4.35202
204 1 2 3.3241 -6.69101 -3.60702
205 1 2 4.20203 -6.83799 -3.44502
206 1 2 4.37805 -7.725 -3.67301
207 1 2 4.44324 -7.90201 -2.73402
208 1 2 5.0072 -7.117 -2.67501
209 1 2 5.38611 -7.763 -3.25201
210 1 2 6.33118 -7.59199 -2.88502
211 1 2 5.97815 -6.85701 -2.38401
212 1 2 6.70203 -7.233 -1.93801
213 1 2 6.7262 -7.07499 -0.953007
214 1 2 6.76917 -6.25599 -0.523007
215 1 2 7.18201 -6.89399 0.0719826
216 1 2 6.47717 -7.60299 0.0519926
217 1 2 5.849 -7.074 -0.528007
218 1 2 5.43616 -7.99099 -0.668007
219 1 1 5.87415 -8.179 -1.46301
220 1 2 5.34021 -7.27501 -1.50801
221 1 2 4.58411 -7.78801 -1.60401
222 1 2 3.74207 -7.477 -1.93301
223 1 2 3.9491 -6.593 -2.44502
224 1 2 4.41907 -6.68499 -1.58401
225 1 2 4.21814 -5.776 -1.86601
226 1 2 4.71008 -5.48401 -1.10801
227 1 2 5.15808 -6.37899 -0.895007
228 1 2 4.651 -7.195 -0.660007
229 1 2 4.48206 -7.50599 0.222983
230 1 2 5.06018 -8.196 0.553993
231 1 2 5.54919 -7.462 0.461983
232 1 2 5.06506 -6.617 0.193993
233 1 2 4.76917 -5.68899 0.0189926
234 1 2 5.72107 -5.739 -0.306007
235 1 2 6.45618 -5.154 -0.319007
236 1 2 7.35803 -5.056 -0.0660174
237 1 2 7.79309 -5.88099 -0.142007
238 1 2 8.03113 -5.70401 -1.03601
239 1 2 8.40808 -4.955 -0.469017
240 1 2 8.04114 -4.09401 -0.514017
241 1 2 8.7721 -3.557 -0.833017
242 1 2 8.12317 -3.033 -1.29801
243 1 2 7.42908 -2.92801 -0.675997
244 1 2 7.23401 -2.218 -0.0110074
245 1 2 8.1471 -2.27299 -0.306007
246 1 2 9.00818 -2.528 -0.592007
247 1 2 9.31116 -2.936 0.224983
248 1 2 9.46008 -2.94301 1.13199
249 1 2 9.06604 -2.636 1.96099
250 1 2 8.21814 -3.031 1.64899
251 1 2 8.56604 -3.586 1.01299
252 1 2 8.93909 -3.985 0.169993
253 1 2 8.27307 -3.294 -0.00301742
254 1 2 7.62 -2.89399 0.667993
255 1 2 8.5011 -2.584 0.796003
256 1 2 7.8822 -1.817 0.789983
257 1 2 8.17517 -1.989 1.66799
258 1 2 8.20618 -1.02701 1.68899
259 1 2 7.48401 -0.408989 2.00998
260 1 2 7.06213 -0.404999 2.85499
261 1 2 6.74011 -1.145 2.30199
262 1 2 7.06604 -1.501 1.44698
263 1 2 6.72302 -2.085 0.804983
264 1 2 7.05115 -1.28 0.384983
265 1 2 6.51013 -0.732009 1.01899
266 1 2 5.9281 -1.32899 0.461983
267 1 2 5.76209 -2.22799 0.206993
268 1 2 6.37512 -2.833 -0.230007
269 1 2 6.43811 -3.34401 -1.01602
270 1 2 5.5741 -3.358 -0.640007
271 1 2 6.11414 -4.033 -0.101007
272 1 2 5.59509 -4.776 0.355993
273 1 2 6.15613 -5.05999 1.08899
274 1 2 6.29822 -5.06601 2.04099
275 1 2 6.78211 -4.395 1.48798
276 1 2 6.74402 -4.38701 0.563993
277 1 2 7.22205 -3.69101 0.0409926
278 1 2 6.94812 -4.242 -0.633007
279 1 2 6.13123 -4.425 -1.13201
280 1 2 5.35315 -4.614 -0.602017
281 1 2 5.11414 -4.501 -1.52301
282 1 2 5.21814 -5.20601 -2.17802
283 1 2 5.22717 -6.186 -2.02401
284 1 2 4.74817 -5.946 -2.81001
285 1 2 3.87415 -5.714 -3.21101
286 1 2 3.71716 -5.77099 -4.14801
287 1 2 3.17102 -6.009 -4.90501
288 1 2 3.32019 -6.345 -5.83601
289 1 2 3.81018 -5.58799 -5.94302
290 1 2 3.62903 -4.695 -6.13101
291 1 2 4.08215 -4.001 -6.61502
292 1 2 4.48108 -3.341 -7.13301
293 1 2 4.24817 -2.86 -7.89802
294 1 2 3.32922 -3.03399 -8.08302
295 1 2 3.25403 -2.22 -7.40602
296 1 2 2.89221 -1.92 -8.18601
297 1 2 2.7721 -0.994989 -8.37602
298 1 2 1.86902 -0.949989 -8.10601
299 1 2 1.724 -0.374009 -8.82301
300 1 2 2.20715 0.152001 -8.20001
301 1 2 2.65711 -0.316999 -7.47502
302 1 2 1.81506 -0.611999 -7.11502
303 1 2 1.23718 -0.0680095 -7.65202
304 1 2 0.806034 0.728001 -7.29801
305 1 2 1.32312 0.442001 -6.53001
306 1 2 2.25012 0.274011 -6.56001
307 1 2 2.99304 0.664001 -6.97502
308 1 2 3.41419 1.605 -7.07301
309 1 2 3.74817 1.05699 -7.71902
310 1 2 3.27307 0.339011 -8.10101
311 1 2 3.7262 -0.0179995 -7.38401
312 1 2 3.96619 -0.561989 -8.10101
313 1 2 3.43518 -1.041 -7.43801
314 1 2 3.68323 -1.611 -6.64401
315 1 2 4.20007 -2.34401 -6.88801
316 1 2 4.26721 -1.69101 -7.62602
317 1 2 4.68323 -0.826989 -7.42501
318 1 2 4.07507 -0.704999 -6.68601
319 1 2 3.4032 -0.106989 -6.39102
320 1 2 3.06604 0.692001 -5.98301
321 1 2 2.56116 0.625001 -5.17501
322 1 2 2.151 -0.0349995 -4.66801
323 1 2 3.02918 0.257011 -4.33502
324 1 2 3.85315 0.624001 -4.69302
325 1 2 3.47107 -0.100989 -5.26202
326 1 2 3.67615 -0.920999 -5.68301
327 1 2 4.57922 -1.13099 -5.95101
328 1 2 4.45007 -2.147 -5.89801
329 1 2 4.96106 -2.611 -5.19801
330 1 2 5.28503 -3.496 -5.06301
331 1 2 5.2511 -4.5 -4.82501
332 1 2 5.32703 -4.28399 -3.90901
333 1 2 5.79211 -3.483 -4.11401
334 1 2 6.28211 -3 -4.74902
335 1 2 6.99402 -3.645 -4.99301
336 1 2 6.13806 -4.069 -4.96701
337 1 2 6.2262 -4.983 -4.72702
338 1 2 6.43323 -4.418 -3.94001
339 1 2 7.27722 -4.912 -4.00701
340 1 2 7.50623 -5.74499 -3.53401
341 1 2 6.62317 -5.804 -3.96101
342 1 2 5.84802 -6.09601 -4.54801
343 1 2 5.45618 -5.38099 -3.95201
344 1 2 4.88611 -6.10299 -3.88902
345 1 2 5.11511 -7.03399 -4.18901
346 1 2 5.67712 -6.751 -3.53102
347 1 2 5.78503 -5.99099 -3.11001
348 1 2 6.76111 -6.22 -2.87701
349 1 2 6.3302 -5.653 -2.20901
350 1 2 5.95422 -5.418 -1.30601
351 1 2 6.12122 -6.367 -1.46002
352 1 2 7.04919 -6.25599 -1.68801
353 1 2 7.01721 -5.423 -1.28301
354 1 2 7.66614 -4.76001 -1.26802
355 1 2 8.17419 -5.044 -2.06001
356 1 2 7.4491 -5.59601 -2.41201
357 1 2 7.06311 -4.739 -2.17401
358 1 2 6.10608 -4.561 -2.19102
359 1 2 5.75916 -4.867 -3.04101
360 1 2 6.66223 -5.151 -3.13401
361 1 2 7.0282 -4.231 -3.08302
362 1 2 7.79309 -4.81801 -3.051
363 1 2 8.32019 -4.423 -3.75601
364 1 2 7.55115 -3.944 -3.97201
365 1 2 8.27014 -3.382 -4.18202
366 1 2 8.23401 -3.51001 -3.21002
367 1 2 7.94006 -2.583 -3.28901
368 1 2 7.65418 -1.875 -3.91001
369 1 2 7.34509 -2.759 -4.22801
370 1 2 6.73816 -3.31601 -3.73901
371 1 2 7.20618 -3.195 -2.95501
372 1 2 7.75916 -2.817 -2.27301
373 1 2 6.98401 -2.841 -1.73901
374 1 2 7.36316 -3.695 -1.52502
375 1 2 7.75501 -3.96299 -2.35702
376 1 2 8.495 -3.936 -1.76802
377 1 2 9.32214 -3.54001 -2.13801
378 1 2 9.61414 -2.67 -2.29101
379 1 2 8.6781 -2.651 -2.54901
380 1 2 8.78601 -2.259 -1.69001
381 1 2 8.10413 -1.67199 -2.04002
382 1 2 7.68811 -2.03599 -1.25401
383 1 2 7.21619 -1.35299 -0.756007
384 1 2 6.41321 -1.573 -0.431007
385 1 2 6.56921 -2.147 -1.18701
386 1 2 6.08606 -1.34601 -1.45802
387 1 2 7.02405 -1.429 -1.801
388 1 2 6.3822 -1.92 -2.33001
389 1 2 6.21423 -2.779 -2.74702
390 1 2 5.40222 -2.168 -2.78802
391 1 2 5.22205 -1.755 -1.94001
392 1 2 5.7511 -1.123 -2.55702
393 1 2 6.46423 -0.661999 -2.24401
394 1 2 5.71008 -0.182999 -1.96801
395 1 2 5.33411 -0.226999 -2.83901
396 1 2 5.95618 -0.624999 -3.50901
397 1 2 5.90002 -1.511 -3.69502
398 1 2 6.00403 -2.48401 -3.81001
399 1 2 6.81702 -2.24901 -3.39401
400 1 2 7.34802 -1.841 -2.74801
401 1 2 6.75916 -1.186 -3.16001
402 1 2 6.98621 -0.928009 -4.03102
403 1 2 7.75623 -0.775009 -3.42201
404 1 2 7.56116 -0.811989 -2.53701
405 1 2 7.35217 -0.0979995 -2.01901
406 1 2 6.8031 -0.466989 -1.26402
407 1 2 5.89417 -0.488999 -0.933007
408 1 2 6.39002 -0.499999 -0.0910074
409 1 2 6.54309 0.349001 -0.554007
410 1 2 7.22913 1.092 -0.347007
411 1 2 7.76404 0.480001 0.0629926
412 1 2 8.58508 0.0860005 0.310993
413 1 2 9.40418 0.181001 -0.147007
414 1 2 9.02502 1.00901 0.132993
415 1 2 9.26502 1.338 0.976993
416 1 2 8.40222 0.993001 0.947993
417 1 2 8.0221 0.976001 1.77698
418 1 2 7.578 1.85601 1.68599
419 1 2 7.72009 1.642 2.67998
420 1 2 7.04504 1.025 2.296
421 1 2 7.68909 0.494011 2.66498
422 1 2 7.40613 0.719001 3.58399
423 1 2 8.23718 1.19699 3.47298
424 1 2 8.51624 2.099 3.41498
425 1 2 8.03601 2.532 4.03998
426 1 2 8.21814 2.32601 4.99499
427 1 2 8.36511 1.56101 4.43799
428 1 2 8.02014 0.894001 5.14599
429 1 2 8.11316 0.380011 4.35099
430 1 2 7.86121 -0.400009 5.02599
431 1 2 7.41711 -1.197 4.63299
432 1 2 6.50818 -1.082 4.49799
433 1 2 6.7721 -0.318999 4.89399
434 1 2 7.05115 0.584001 4.57699
435 1 2 6.35901 1.051 4.10799
436 1 2 5.71106 1.303 3.45699
437 1 2 4.94202 1.955 3.61199
438 1 2 4.349 2.276 2.91399
439 1 2 4.69202 2.04399 2.05498
440 1 2 4.00623 1.782 1.52099
441 1 2 3.5802 2.37599 2.12099
442 1 2 3.78503 3.166 1.64699
443 1 2 4.41711 3.22701 2.31099
444 1 2 5.29407 2.952 2.01398
445 1 2 4.79822 2.71401 1.268
446 1 2 4.89221 1.767 0.969993
447 1 2 4.46912 1.65399 0.164983
448 1 2 5.36414 1.284 0.0289826
449 1 2 5.49817 0.371011 -0.320017
450 1 2 4.88123 -0.0810095 -0.912007
451 1 2 4.97913 -0.819999 -1.43901
452 1 2 4.68103 -0.999999 -2.32402
453 1 2 3.83215 -1.20601 -2.71301
454 1 2 2.83313 -1.34401 -2.84201
455 1 2 2.98523 -0.663009 -3.44201
456 1 2 3.07922 -1.485 -3.94401
457 1 2 2.47107 -2.186 -3.70701
458 1 2 1.97009 -2.98201 -3.52601
459 1 2 2.96521 -3.147 -3.42001
460 1 2 3.75305 -3.283 -3.88702
461 1 2 3.36023 -2.488 -4.17102
462 1 2 4.09021 -2.47799 -4.72302
463 1 2 4.17908 -3.35901 -5.06301
464 1 2 4.49109 -4.01899 -4.45602
465 1 2 3.58801 -4.07 -4.65501
466 1 2 3.00916 -4.182 -3.89302
467 1 2 3.03601 -4.95199 -4.49801
468 1 2 2.95715 -4.93499 -5.38601
469 1 2 2.37708 -4.295 -4.95201
470 1 2 1.88611 -3.82 -4.23802
471 1 2 2.78919 -3.375 -4.45802
472 1 2 3.07605 -2.992 -5.22201
473 1 2 2.3302 -2.488 -5.55401
474 1 2 2.03723 -3.31801 -5.36401
475 1 2 1.87805 -2.808 -4.56301
476 1 2 2.4281 -1.981 -4.74002
477 1 2 1.58801 -1.83101 -5.04801
478 1 2 0.925174 -1.40201 -4.55902
479 1 2 0.428104 -1.934 -5.16302
480 1 1 0.140024 -1.07499 -5.66401
481 1 2 0.923224 -0.650009 -5.32501
482 1 2 1.82117 -0.840999 -5.19502
483 1 2 1.77112 -0.600989 -6.07801
484 1 2 2.59509 -0.361999 -5.80502
485 1 2 2.65711 -0.933999 -6.58702
486 1 2 2.36707 -1.52701 -7.23802
487 1 2 2.71716 -2.102 -6.46701
488 1 2 3.41614 -2.14599 -5.71601
489 1 2 3.4801 -1.68899 -4.88401
490 1 2 4.41907 -1.447 -4.93101
491 1 2 4.43713 -0.484009 -5.03201
492 1 2 4.55212 0.0569905 -4.26602
493 1 2 4.40418 -0.418999 -3.48802
494 1 2 3.67102 -0.199989 -2.80401
495 1 2 3.72522 0.653991 -2.47601
496 1 2 3.54407 1.366 -1.87602
497 1 2 4.5072 1.562 -1.81001
498 1 2 5.08118 0.956001 -1.40402
499 1 2 5.93616 0.546011 -1.31001
500 1 2 6.47913 0.461991 -2.09501
501 1 2 6.28723 1.414 -2.06001
502 1 2 5.81116 1.96199 -1.47401
503 1 2 5.08704 2.605 -1.24101
504 1 2 4.93909 1.75099 -0.790017
505 1 2 4.01502 1.635 -0.844017
506 1 2 3.2052 1.28099 -0.752007
507 1 2 2.79114 0.548011 -1.05902
508 1 1 3.1322 0.0760105 -1.76501
509 1 2 3.1781 -0.923989 -1.83801
510 1 2 2.5741 -0.521999 -1.16601
511 1 2 1.87805 -0.128989 -0.587017
512 1 2 1.80408 0.764001 -0.966007
513 1 2 1.58118 1.513 -0.401007
514 1 2 2.47815 1.92 -0.407007
515 1 2 2.53211 2.666 0.193993
516 1 2 2.11511 2.46199 1.10399
517 1 2 1.58923 2.18 0.393993
518 1 2 1.53308 1.609 1.12099
519 1 2 1.73621 0.930001 0.430993
520 1 2 2.57605 0.817001 -0.0150074
521 1 2 2.56604 1.532 0.693993
522 1 2 3.4762 1.37 0.683983
523 1 2 4.20618 0.860001 0.925983
524 1 2 3.46204 0.711001 1.55698
525 1 2 3.20203 0.340001 0.747993
526 1 2 3.672 0.640001 -0.0120174
527 1 2 4.49207 0.789001 -0.480007
528 1 2 4.0741 0.622001 -1.35702
529 1 2 4.65711 0.323001 -2.10101
530 1 2 4.05505 -0.318999 -1.81101
531 1 2 3.76306 -0.351999 -0.936007
532 1 2 4.27405 -1.042 -0.539007
533 1 2 4.54602 -1.82899 -0.924007
534 1 2 4.05823 -1.558 -1.67501
535 1 2 3.35022 -2.05 -2.11601
536 1 2 3.52502 -2.336 -1.10301
537 1 2 4.12415 -2.638 -1.78102
538 1 2 4.37903 -2.044 -2.60101
539 1 2 3.57507 -2.155 -3.13601
540 1 2 3.93616 -3.02 -2.83302
541 1 2 3.22717 -3.111 -2.13502
542 1 2 3.62512 -3.615 -1.42201
543 1 2 4.60803 -3.593 -1.36502
544 1 2 4.24304 -3.1 -0.624017
545 1 2 4.88513 -2.67399 -0.0320074
546 1 2 4.87903 -1.71 0.123983
547 1 2 5.07922 -1.75799 1.08999
548 1 2 5.29016 -0.811989 1.17199
549 1 2 5.203 0.0999905 1.48998
550 1 2 5.00208 0.408011 0.583993
551 1 2 5.88709 0.0510005 0.663993
552 1 2 6.29919 0.883001 0.388983
553 1 2 6.89319 0.153001 0.521993
554 1 2 7.11511 0.452001 1.42998
555 1 2 6.23303 0.373001 1.71799
556 1 2 6.01404 -0.449989 2.03998
557 1 2 5.11609 -0.583999 2.31598
558 1 2 4.33801 -0.816999 1.81598
559 1 2 4.06506 -1.793 1.62398
560 1 2 3.26404 -1.18 1.36599
561 1 2 2.5011 -0.887999 0.893993
562 1 2 2.26624 -0.0449995 0.445993
563 1 2 2.87805 -0.191999 -0.279017
564 1 2 3.49719 -0.814999 0.286993
565 1 2 4.297 -1.044 0.738993
566 1 2 4.14221 -0.145989 1.02399
567 1 2 4.28113 -0.0979995 0.0699826
568 1 2 5.09802 -0.650009 0.163993
569 1 2 5.35901 -1.199 -0.611017
570 1 2 5.52112 -2.125 -0.747017
571 1 2 5.04309 -2.692 -1.33401
572 1 2 5.83508 -2.68899 -1.76901
573 1 2 5.73816 -3.612 -1.71002
574 1 2 6.53015 -3.68699 -2.28401
575 1 2 5.93103 -3.77501 -3.08201
576 1 2 5.11902 -4.19301 -2.63201
577 1 2 4.29016 -3.83999 -2.26602
578 1 2 4.89319 -3.134 -2.39401
579 1 2 5.24011 -3.048 -3.28001
580 1 2 4.82507 -3.042 -4.18901
581 1 2 4.47913 -2.371 -3.60801
582 1 2 5.0282 -2.005 -4.18901
583 1 2 5.83215 -2.003 -4.74002
584 1 2 6.68005 -1.895 -4.44902
585 1 2 7.39002 -1.38501 -4.87602
586 1 2 8.07019 -0.816009 -4.42301
587 1 2 7.84119 -0.402999 -5.24801
588 1 2 7.75623 0.538001 -5.31301
589 1 2 8.04407 1.042 -4.49801
590 1 2 7.41101 1.52899 -3.92102
591 1 2 7.43518 1.95101 -2.98802
592 1 2 7.25012 1.814 -2.04402
593 1 2 7.31311 0.929001 -2.41902
594 1 2 7.953 0.801001 -1.72001
595 1 2 8.41321 -0.0960095 -1.77101
596 1 2 7.94714 -0.870999 -1.27301
597 1 2 8.50012 -0.303009 -0.712017
598 1 2 8.922 0.465001 -1.01901
599 1 2 8.26306 1.008 -0.694007
600 1 2 7.80212 1.693 -1.25102
601 1 2 8.2301 2.465 -1.71701
602 1 2 7.4801 2.739 -1.22001
603 1 2 7.61121 2.265 -0.389017
604 1 2 7.97522 1.61 0.250983
605 1 2 7.36414 1.204 0.778983
606 1 2 6.68518 1.43199 1.36699
607 1 2 6.63611 2.295 1.22999
608 1 2 7.41419 2.44001 0.645993
609 1 2 6.75501 1.887 0.141993
610 1 2 5.91809 2.052 0.547993
611 1 2 5.14807 2.53301 0.255993
612 1 2 5.3971 3.174 -0.404017
613 1 2 6.21716 3.72901 -0.245007
614 1 2 6.55505 3.03701 0.400993
615 1 2 6.68005 2.78099 -0.503017
616 1 2 5.94104 2.18601 -0.469017
617 1 2 6.21912 1.31501 -0.656017
618 1 2 6.79602 1.931 -1.14501
619 1 2 7.02112 1.021 -1.35202
620 1 2 7.51502 0.274011 -0.975017
621 1 2 7.453 -0.466989 -0.304007
622 1 2 8.08704 -1.13501 -0.0810174
623 1 2 8.50818 -0.822999 0.735983
624 1 2 7.61902 -0.512999 0.897983
625 1 2 8.21619 0.0410005 1.31199
626 1 2 8.45618 -0.153999 2.24698
627 1 2 8.73914 0.736001 2.59398
628 1 2 9.14221 0.611001 1.77599
629 1 2 9.31311 0.272011 0.928993
630 1 2 9.64124 -0.630989 0.753993
631 1 2 9.245 -0.693009 1.59699
632 1 2 9.0741 -1.511 2.12499
633 1 2 9.17419 -1.751 1.13099
634 1 2 8.97913 -1.75799 0.214993
635 1 2 9.2052 -0.890999 -0.207007
636 1 2 8.67322 -1.459 -0.847007
637 1 2 8.98816 -1.18 -1.63502
638 1 2 9.41711 -0.380989 -1.27201
639 1 2 9.495 0.364001 -1.94601
640 1 2 8.91223 0.746011 -2.64001
641 1 2 8.16419 1.079 -3.18402
642 1 2 8.28211 1.62599 -2.37402
643 1 2 8.8031 1.439 -1.64801
644 1 2 9.38123 1.469 -0.782007
645 1 2 8.60022 1.97901 -0.725017
646 1 2 9.04016 2.006 0.0849826
647 1 2 8.35022 2.75 0.180993
648 1 2 8.80017 3.118 -0.631007
649 1 2 8.00916 3.667 -0.900017
650 1 2 7.526 3.42501 -0.166007
651 1 2 7.63416 3.70999 0.748983
652 1 2 7.51721 4.316 1.53699
653 1 2 7.62122 5.122 0.951993
654 1 2 7.76111 5.504 0.0789826
655 1 2 7.63318 4.609 -0.279017
656 1 2 6.73816 4.76 -0.504007
657 1 2 6.94519 5.666 -0.861017
658 1 2 7.79504 5.68 -1.39801
659 1 2 7.39417 4.825 -1.37901
660 1 2 7.14514 4.441 -2.19201
661 1 2 7.38001 4.80001 -3.00801
662 1 2 7.00012 4.88001 -3.92102
663 1 2 6.94006 3.95301 -3.76101
664 1 2 6.36804 3.261 -4.23001
665 1 2 7.21814 3.357 -4.78901
666 1 2 6.6842 4.177 -4.68901
667 1 2 6.01819 4.32801 -3.95301
668 1 2 5.3822 4.00501 -4.62101
669 1 2 5.2782 3.98799 -5.58502
670 1 2 4.34802 3.982 -5.72702
671 1 2 3.81506 3.74201 -5.03301
672 1 2 3.09412 4.2 -4.51402
673 1 2 3.36609 3.49401 -4.02001
674 1 2 2.47205 3.19001 -3.99002
675 1 2 2.08704 3.637 -4.72001
676 1 2 2.91907 3.215 -4.99201
677 1 2 3.24207 2.46401 -5.49501
678 1 2 3.4281 1.681 -5.99401
679 1 2 3.99109 1.00099 -5.65901
680 1 2 4.18005 1.625 -4.92602
681 1 2 4.24402 2.25701 -5.62501
682 1 2 5.16907 1.87799 -5.54202
683 1 2 5.19812 1.062 -6.06802
684 1 2 6.0592 1.389 -6.31401
685 1 2 5.46008 2.088 -6.66001
686 1 2 5.9552 2.527 -6.00302
687 1 2 6.69617 2.685 -5.43501
688 1 2 5.95203 3.34799 -5.26202
689 1 2 5.79016 2.50901 -4.93101
690 1 2 4.98108 2.29399 -4.59402
691 1 2 4.81213 3.123 -5.08801
692 1 2 4.77918 3.081 -6.08201
693 1 2 5.10803 3.79801 -6.66101
694 1 2 4.203 3.64301 -6.82301
695 1 2 4.64612 2.80699 -7.10702
696 1 2 3.8551 2.52201 -6.65402
697 1 2 2.88904 2.553 -6.50801
698 1 2 2.69202 2.489 -7.39401
699 1 2 2.08118 3.05001 -6.94102
700 1 2 2.39221 3.54801 -7.71002
701 1 2 3.3031 3.383 -7.33801
702 1 2 2.89124 3.661 -6.55801
703 1 2 3.50818 3.34301 -6.03102
704 1 2 2.96008 4.00501 -5.52801
705 1 2 2.52918 4.808 -5.05601
706 1 2 2.78211 5.30001 -4.27201
707 1 2 2.58704 6.19699 -4.02301
708 1 2 2.82312 6.97701 -4.60601
709 1 2 1.89905 7.22901 -5.03401
710 1 2 1.45911 6.558 -5.56701
711 1 2 1.922 6.241 -6.29701
712 1 2 2.20618 5.366 -6.81701
713 1 2 2.57922 4.717 -6.12001
714 1 2 2.974 5.45301 -5.73001
715 1 2 2.7572 6.443 -5.64401
716 1 2 2.26306 5.95301 -5.00701
717 1 2 1.82117 5.396 -5.65501
718 1 2 0.892214 5.551 -5.85702
719 1 2 0.683234 4.692 -5.53201
720 1 2 1.54822 4.455 -5.27702
721 1 2 1.8822 3.77899 -5.82701
722 1 2 1.08606 3.868 -6.24601
723 1 2 1.51721 4.66201 -6.38801
724 1 2 2.06604 4.183 -6.93901
725 1 2 2.88611 4.54 -7.16601
726 1 2 3.328 5.261 -6.72801
727 1 2 3.55701 4.403 -6.36901
728 1 2 4.41223 4.76801 -6.61102
729 1 2 4.07922 5.25501 -5.89501
730 1 2 3.67615 4.75099 -5.19001
731 1 2 4.01111 5.151 -4.42001
732 1 2 3.68323 5.87599 -5.02502
733 1 2 4.62903 6.23799 -4.90202
734 1 1 4.48401 6.012 -4.02801
735 1 2 3.53723 6.06301 -3.99801
736 1 2 3.745 5.639 -3.21101
737 1 2 4.01917 6.53099 -3.15701
738 1 2 3.71301 7.31501 -2.63301
739 1 2 4.56311 6.91899 -2.32002
740 1 2 3.93811 6.235 -2.21002
741 1 2 3.03406 6.575 -2.25001
742 1 2 2.84314 6.193 -3.10002
743 1 2 3.03503 7.07 -3.52702
744 1 2 2.6012 7.536 -2.77702
745 1 2 2.42322 7.39501 -1.84701
746 1 2 2.4281 6.70101 -1.22702
747 1 2 2.3971 6.474 -0.297007
748 1 2 1.93713 5.80699 -0.814007
749 1 2 1.00916 5.89301 -0.760017
750 1 2 1.36218 6.819 -0.653007
751 1 2 1.56409 7.484 -1.33702
752 1 2 0.932014 8.124 -1.54901
753 1 2 0.362184 8.79399 -1.95201
754 1 1 1.18811 8.81501 -2.32202
755 1 2 1.19202 8.50501 -3.23501
756 1 2 1.97302 8.07401 -3.54901
757 1 2 2.0011 7.202 -3.90501
758 1 2 1.16614 7.525 -4.17501
759 1 2 1.27405 7.351 -3.31501
760 1 2 1.59216 7.846 -2.45301
761 1 2 2.18518 8.58701 -2.48101
762 1 2 1.95422 8.37 -1.61302
763 1 1 1.34119 8.96401 -1.00501
764 1 2 0.732064 9.461 -0.431007
765 1 2 1.42322 9.803 0.216993
766 1 2 2.20715 9.53 -0.206017
767 1 2 3.05212 9.222 -0.276007
768 1 2 2.82214 8.95301 -1.17001
769 1 2 3.17517 8.25299 -1.71202
770 1 2 3.78406 8.30699 -1.00102
771 1 2 4.20813 7.655 -0.494007
772 1 2 4.67322 7.43801 -1.37501
773 1 2 4.42712 6.497 -1.09201
774 1 2 4.88806 6.06501 -1.81201
775 1 2 5.56409 5.94001 -2.39102
776 1 2 5.14221 6.29399 -3.17401
777 1 2 4.62903 5.555 -2.72401
778 1 2 4.47302 4.86701 -3.42201
779 1 2 5.07312 4.907 -4.17501
780 1 2 4.91419 4.864 -5.13601
781 1 2 5.91614 4.814 -5.09001
782 1 2 5.80017 5.666 -4.61801
783 1 2 5.81311 5.437 -3.64901
784 1 2 6.37219 5.31301 -2.89501
785 1 2 6.38904 4.37799 -2.89701
786 1 2 6.05823 3.519 -3.17401
787 1 2 6.7262 2.88401 -3.21301
788 1 2 7.47009 2.885 -3.76202
789 1 2 8.05408 2.83 -3.06602
790 1 2 7.49109 3.62 -2.83201
791 1 2 7.82117 3.583 -1.98101
792 1 2 7.27014 2.851 -2.22601
793 1 2 6.38513 2.39301 -2.301
794 1 2 6.36511 2.861 -1.47502
795 1 2 6.56506 3.61299 -2.07501
796 1 2 6.83411 3.922 -1.17301
797 1 2 6.28601 4.60401 -1.60401
798 1 2 6.52722 5.45999 -1.81401
799 1 2 5.78015 5.60401 -1.26901
800 1 2 4.87805 5.361 -0.979007
801 1 2 4.901 5.2 -0.0890074
802 1 2 4.73206 4.539 0.553993
803 1 2 5.04309 4.179 -0.355007
804 1 1 5.68616 4.573 -0.795007
805 1 2 5.68909 3.748 -1.28001
806 1 2 4.84021 3.461 -1.76301
807 1 2 4.43323 3.42 -0.903007
808 1 2 4.32922 2.581 -0.480007
809 1 2 3.52112 3.09999 -0.357017
810 1 2 3.41101 2.228 -0.0820074
811 1 2 4.04407 2.489 0.585993
812 1 2 3.2301 2.375 0.977993
813 1 2 2.8761 1.73999 1.70499
814 1 2 1.95813 1.74601 2.11098
815 1 2 1.40808 0.985001 2.11298
816 1 2 1.2262 0.614001 1.24698
817 1 2 0.404184 0.308991 0.896993
818 1 2 1.1471 0.0800005 0.315983
819 1 2 0.882204 0.430001 -0.548007
820 1 2 0.613164 1.30699 -0.882007
821 1 2 0.288214 1.21601 -1.83401
822 1 2 -0.347776 1.398 -2.53301
823 1 2 0.316044 1.663 -3.17901
824 1 2 0.354134 2.12101 -4.03401
825 1 2 0.389044 1.57401 -4.87101
826 1 1 -0.573846 1.68801 -4.88502
827 1 1 -0.282836 0.983001 -5.49601
828 1 1 0.153204 1.15399 -6.26101
829 1 2 0.905154 0.992011 -5.65402
830 1 2 1.45105 0.237001 -5.38001
831 1 2 1.45203 0.812001 -4.68402
832 1 2 1.51013 1.72901 -5.15002
833 1 2 1.297 1.84301 -4.24401
834 1 2 2.08923 2.20101 -3.79002
835 1 2 2.4032 1.456 -3.24902
836 1 2 1.43616 1.484 -3.26602
837 1 2 1.22009 2.407 -3.20602
838 1 2 0.606084 3.125 -3.32701
839 1 2 0.223024 4.03099 -3.46002
840 1 2 1.03601 4.071 -2.87901
841 1 2 1.7782 4.618 -3.08801
842 1 2 2.56311 5.123 -3.21601
843 1 2 1.8512 5.50299 -3.62101
844 1 2 1.62219 6.39099 -3.33801
845 1 2 1.84119 6.65801 -2.48501
846 1 2 1.42712 6.40399 -1.66001
847 1 2 0.880014 7.006 -2.11401
848 1 2 0.411014 6.651 -1.35702
849 1 2 0.278204 7.52401 -0.995007
850 1 2 0.121224 8.482 -0.951007
851 1 2 0.128054 8.278 -0.0220074
852 1 2 0.594124 7.428 0.0509826
853 1 2 1.16101 7.961 -0.476007
854 1 2 1.1842 8.68 0.108983
855 1 2 1.49402 7.948 0.632993
856 1 2 0.653204 8.11501 0.925983
857 1 2 1.0221 8.02401 1.78098
858 1 2 1.75623 7.424 1.48398
859 1 2 1.13416 6.889 2.02298
860 1 2 0.792114 6.094 2.27698
861 1 2 1.57312 5.63201 2.02799
862 1 2 1.84509 5.978 2.89199
863 1 2 1.89002 6.72499 3.51999
864 1 2 1.53211 7.603 3.42499
865 1 2 1.74011 7.993 2.58199
866 1 2 1.776 8.62799 3.27698
867 1 2 1.0221 8.743 2.66999
868 1 2 0.290164 9.36901 2.57799
869 1 2 0.520144 9.23 1.64899
870 1 2 1.36902 8.952 1.26099
871 1 2 1.81018 9.11901 2.11298
872 1 2 2.24622 8.47 1.53199
873 1 2 3.16907 8.21201 1.07799
874 1 2 4.01111 8.71401 1.19298
875 1 2 3.24304 9.228 0.852993
876 1 2 2.28113 9.40599 0.995993
877 1 2 2.3512 8.624 0.426993
878 1 2 2.16003 8.38001 -0.482017
879 1 2 2.224 7.465 -0.355007
880 1 2 2.93811 7.594 -0.936007
881 1 2 3.54407 7.14 -1.50201
882 1 2 3.50012 6.68 -0.673007
883 1 2 3.25818 7.224 0.142983
884 1 2 3.21912 8.178 -0.127007
885 1 2 4.02722 8.46401 0.218983
886 1 2 4.03723 7.612 0.731983
887 1 2 4.95422 7.83701 0.429983
888 1 2 5.25916 7.183 -0.236017
889 1 2 5.54919 6.78701 -1.04402
890 1 2 5.19006 6.17301 -0.400017
891 1 2 5.88611 5.499 -0.275017
892 1 2 6.61609 5.441 0.403983
893 1 2 7.07019 6.243 0.0429926
894 1 2 6.18616 6.525 -0.145007
895 1 2 6.00818 7.17101 0.560993
896 1 2 6.53601 6.39 0.921993
897 1 2 6.05408 5.795 1.54398
898 1 2 6.98621 5.61 1.62198
899 1 2 7.02014 5.023 2.31199
900 1 2 6.95618 5.942 2.699
901 1 2 6.68005 5.87599 3.63199
902 1 2 6.11121 5.178 3.43398
903 1 2 6.52502 4.394 3.21799
904 1 2 7.05212 3.61 2.99199
905 1 2 6.70715 3.982 2.19999
906 1 2 6.35901 3.094 1.93899
907 1 2 5.81213 3.04 1.10999
908 1 1 5.38318 3.595 0.502983
909 1 2 4.48718 3.43199 0.340993
910 1 2 4.00012 4.09301 -0.162007
911 1 2 3.81824 5.00901 0.0969926
912 1 2 3.8241 4.933 -0.872017
913 1 2 4.12512 5.249 -1.78701
914 1 2 3.5802 5.90399 -1.34402
915 1 2 2.99915 5.667 -0.640007
916 1 2 2.50501 5.362 0.0949926
917 1 2 2.43323 4.79801 -0.652017