LAMMPS config file Copolymer without Loops

4000 atoms
3999 bonds

2 atom types
1 bond types 

-100 100 xlo xhi
-100 100 ylo yhi
-100 100 zlo zhi 

Masses

1 1.00
2 1.00

Atoms

1 1 1 -0.571896 -1.03298 9.35299
2 1 1 -1.30994 -0.382967 9.31998
3 1 1 -1.28796 -0.865967 8.46999
4 1 1 -2.03284 -1.26298 8.91298
5 1 1 -1.97082 -2.12199 9.25799
6 1 1 -1.15295 -1.84599 8.87798
7 1 1 -0.974976 -1.74198 7.95998
8 1 1 -0.694946 -1.04098 7.31598
9 1 1 -0.949826 -1.55598 6.55898
10 1 1 -0.656856 -2.28098 7.10499
11 1 1 -1.46887 -2.71497 7.30498
12 1 1 -0.694946 -3.26998 7.40398
13 1 1 -0.429806 -4.13798 7.57099
14 1 1 0.328004 -4.42698 8.15899
15 1 1 1.01209 -3.83298 8.56998
16 1 1 0.922004 -2.88297 8.78599
17 1 1 0.447144 -2.23798 8.17499
18 1 1 -0.379996 -2.63798 8.34099
19 1 1 -0.258906 -2.40298 9.24499
20 1 1 -1.02087 -2.95599 9.21898
21 1 1 -1.46179 -2.64597 8.37099
22 1 1 -2.25793 -2.95698 8.79299
23 1 1 -2.71399 -3.24998 8.01099
24 1 1 -2.31995 -3.51798 7.15598
25 1 1 -1.52087 -3.93298 7.46699
26 1 1 -2.34289 -4.36398 7.77498
27 1 1 -1.81189 -3.94299 8.48598
28 1 1 -0.961786 -3.58797 8.337
29 1 1 -0.967886 -4.55598 8.39699
30 1 1 -0.583856 -4.13798 9.18499
31 1 1 0.00403421 -3.53197 8.77399
32 1 1 0.266244 -3.30299 7.87899
33 1 1 0.295044 -2.75098 7.14199
34 1 1 1.08313 -2.27499 7.35299
35 1 2 1.68811 -1.56799 7.57799
36 1 2 1.78308 -1.66898 6.60599
37 1 1 1.828 -2.44798 6.05498
38 1 2 1.80408 -1.58997 5.58399
39 1 2 2.62 -1.27097 5.96599
40 1 2 2.703 -1.17698 4.96898
41 1 2 3.49011 -1.16998 4.39899
42 1 2 3.73621 -2.00898 3.99799
43 1 2 2.93811 -2.35198 3.57198
44 1 2 2.21912 -2.88699 3.11699
45 1 2 2.9491 -3.51698 3.25298
46 1 2 3.76502 -4.15398 3.29299
47 1 2 2.84509 -4.64298 3.24698
48 1 2 2.85413 -4.24497 4.13299
49 1 2 2.81018 -3.30198 4.27099
50 1 2 1.99915 -2.82398 4.17299
51 1 2 1.95422 -2.64797 5.08199
52 1 2 1.25208 -3.21998 5.35799
53 1 2 1.06604 -3.38998 4.40499
54 1 2 1.02918 -2.43998 4.44098
55 1 2 1.15711 -2.70098 3.49199
56 1 2 1.29211 -3.54498 3.28098
57 1 2 2.07117 -3.84399 3.71699
58 1 2 1.47205 -4.48298 4.17598
59 1 2 2.06018 -5.18998 3.87598
60 1 2 1.12122 -5.32798 3.64499
61 1 2 0.955204 -5.52998 2.75599
62 1 2 0.0831342 -5.86898 2.49199
63 1 2 0.699104 -5.74899 1.70598
64 1 1 1.43811 -6.23298 2.01398
65 1 2 2.20007 -6.50597 2.53998
66 1 2 3.08704 -6.79998 2.17299
67 1 2 3.88611 -6.34399 2.54699
68 1 2 3.6781 -5.53698 3.05298
69 1 2 2.97107 -5.68398 2.38698
70 1 2 2.08508 -5.51298 2.78399
71 1 2 1.70911 -4.72797 3.04099
72 1 2 2.12317 -3.97099 2.62798
73 1 2 2.53308 -4.68598 2.21699
74 1 2 3.44812 -4.74699 2.36399
75 1 2 3.23303 -3.83298 2.21499
76 1 2 3.2301 -3.99699 1.30399
77 1 2 2.96106 -3.51798 0.520991
78 1 2 3.38001 -2.68897 0.762991
79 1 2 3.96521 -3.38699 1.02399
80 1 2 3.57214 -2.93098 1.78399
81 1 2 3.16003 -2.71398 2.62398
82 1 2 2.54309 -3.11597 2.074
83 1 2 2.401 -2.53197 1.29099
84 1 2 2.047 -2.94997 0.483981
85 1 2 2.53723 -2.95698 -0.284009
86 1 2 2.54407 -2.14999 -0.869009
87 1 2 1.96106 -2.87098 -1.10101
88 1 2 2.02722 -3.81298 -1.03802
89 1 2 1.13318 -3.86797 -1.53201
90 1 2 1.92712 -4.14698 -1.99401
91 1 2 1.9281 -3.23798 -2.18701
92 1 2 2.65002 -2.59098 -1.98301
93 1 2 2.7572 -3.53098 -1.71801
94 1 2 3.21423 -2.95798 -1.10401
95 1 2 3.72717 -3.01199 -1.86801
96 1 2 3.72815 -3.92799 -2.15801
97 1 2 4.46423 -4.44798 -1.78501
98 1 2 5.33704 -4.77097 -1.57301
99 1 2 6.23816 -4.50597 -1.78102
100 1 2 6.54211 -4.37998 -0.938009
101 1 2 7.09119 -4.09399 -0.201009
102 1 2 6.3761 -3.85198 0.372991
103 1 2 5.99402 -4.17698 1.15699
104 1 2 5.51917 -3.31498 0.949991
105 1 2 4.98718 -2.52198 1.14998
106 1 2 5.474 -2.27198 0.394991
107 1 2 6.24207 -1.71998 0.512991
108 1 2 6.776 -1.37598 1.24698
109 1 2 7.43518 -0.716967 1.59699
110 1 2 7.67102 -1.62598 1.82198
111 1 2 7.57507 -2.11597 2.54999
112 1 2 8.25403 -2.58198 2.01499
113 1 2 8.64319 -2.94498 1.26099
114 1 2 8.20911 -2.28197 0.680991
115 1 2 9.026 -1.87598 0.893001
116 1 2 8.73108 -1.24398 0.252981
117 1 2 8.09314 -1.70498 -0.206019
118 1 2 7.9281 -2.61997 -0.343009
119 1 2 7.1532 -3.05097 -0.0890088
120 1 2 6.44324 -2.78197 0.444981
121 1 2 7.11316 -2.09197 0.378991
122 1 2 7.07507 -1.15598 0.204991
123 1 2 7.78601 -1.33198 0.768991
124 1 2 8.46301 -1.01498 1.29799
125 1 2 8.75012 -1.46297 2.08799
126 1 2 8.91711 -0.542977 2.12198
127 1 2 8.06506 -0.578967 2.49698
128 1 2 8.63416 -0.759987 3.29398
129 1 2 8.28308 -1.73698 3.19199
130 1 2 8.06213 -1.25797 3.99898
131 1 2 8.39319 -1.15498 4.95099
132 1 2 7.68323 -0.568977 5.23198
133 1 2 7.151 -0.910967 4.42699
134 1 2 6.43616 -1.01498 3.88999
135 1 2 5.79407 -1.59798 4.28699
136 1 2 5.32312 -2.30798 4.60599
137 1 2 4.66907 -2.66299 4.02898
138 1 2 5.41809 -3.25797 4.01499
139 1 2 4.73206 -3.82198 3.66399
140 1 2 4.97205 -4.06498 2.73899
141 1 2 5.74109 -4.06298 3.45598
142 1 2 5.8761 -3.20698 3.01899
143 1 2 5.02112 -2.86198 3.02599
144 1 2 5.49304 -2.18398 3.49
145 1 2 6.29822 -2.18998 2.93999
146 1 2 6.93518 -2.82897 3.13999
147 1 2 7.86511 -2.79298 3.43198
148 1 2 7.56116 -3.77998 3.35099
149 1 2 6.67004 -3.85297 2.88399
150 1 2 7.01819 -4.74798 2.77698
151 1 2 6.85901 -4.24097 1.893
152 1 2 7.11609 -5.09599 1.75998
153 1 2 6.34802 -5.10497 1.24099
154 1 2 6.52502 -4.92197 0.344991
155 1 2 6.85706 -5.77699 0.526981
156 1 2 6.24011 -5.75698 -0.241009
157 1 2 6.09705 -5.38297 -1.16001
158 1 2 5.75916 -4.79998 -0.455009
159 1 2 5.43616 -4.09898 -0.00600883
160 1 2 5.41101 -3.84599 -0.968009
161 1 2 6.03308 -3.21998 -0.570019
162 1 2 6.15906 -2.30097 -0.417019
163 1 2 6.2301 -1.38297 -0.556009
164 1 2 5.41711 -0.999977 -0.929009
165 1 2 5.27918 -0.0129773 -0.947019
166 1 2 5.297 0.852033 -1.30502
167 1 2 5.52722 0.198023 -1.97601
168 1 2 4.94104 0.243023 -2.72601
169 1 2 5.1991 1.14703 -2.41401
170 1 2 5.56506 1.68002 -3.10401
171 1 2 5.11707 0.954023 -3.52101
172 1 2 4.474 1.02302 -4.23202
173 1 2 4.52722 0.146023 -4.68002
174 1 2 4.0072 0.749023 -5.22502
175 1 2 3.56409 1.44502 -4.66601
176 1 2 3.30017 1.56103 -5.64302
177 1 2 3.39417 1.58802 -6.57801
178 1 2 3.54211 2.42103 -7.07202
179 1 2 4.12317 2.33501 -6.34602
180 1 2 4.47009 1.80602 -7.11601
181 1 1 3.80701 1.60203 -7.81401
182 1 2 2.87122 1.65702 -7.54202
183 1 2 2.4032 2.14101 -6.88301
184 1 2 1.54211 2.07403 -7.33401
185 1 2 1.53406 1.64903 -6.48301
186 1 2 2.13806 1.95002 -5.73501
187 1 2 2.46521 1.18002 -6.17802
188 1 2 2.80603 0.724023 -6.98602
189 1 2 2.03211 1.12103 -7.20402
190 1 2 1.81921 0.202023 -7.03102
191 1 2 1.35608 0.0620227 -7.87001
192 1 2 1.55505 -0.719977 -7.39802
193 1 2 0.803104 -0.872977 -7.87001
194 1 2 1.1322 -1.25797 -8.69502
195 1 2 1.91223 -0.752977 -8.44201
196 1 2 2.86609 -0.785967 -8.58001
197 1 2 2.69421 0.200023 -8.77101
198 1 2 2.42712 0.567023 -7.98701
199 1 2 2.54504 -0.371987 -7.66601
200 1 2 3.276 -0.994967 -7.40901
201 1 2 4.07117 -0.517977 -7.27801
202 1 2 3.4552 0.107023 -7.70901
203 1 2 3.93518 0.708023 -7.11302
204 1 2 4.38611 0.123023 -6.50102
205 1 2 5.31018 0.271023 -6.23701
206 1 2 5.0011 0.574033 -5.43601
207 1 2 5.16003 1.47102 -5.25801
208 1 2 5.31506 2.35802 -4.90801
209 1 2 5.24011 1.81303 -4.12001
210 1 2 6.12415 2.25301 -4.21401
211 1 2 6.16614 1.65302 -5.00302
212 1 2 6.18005 2.29002 -5.76002
213 1 2 5.28015 2.40002 -6.07801
214 1 2 5.02307 3.12601 -6.67602
215 1 2 4.28211 3.36202 -6.16601
216 1 2 4.50012 2.82302 -5.36302
217 1 2 4.26404 1.90803 -5.41902
218 1 2 4.41711 1.26302 -6.11901
219 1 1 5.37512 1.39703 -6.35002
220 1 2 6.09412 1.06503 -5.85002
221 1 2 5.96716 0.191023 -5.41401
222 1 2 5.61316 0.576033 -4.53601
223 1 2 6.03015 0.0990227 -3.85702
224 1 2 5.13611 -0.151987 -3.68901
225 1 2 5.82214 -0.895967 -3.74801
226 1 2 5.50012 -1.70397 -3.37602
227 1 2 6.16321 -1.26598 -2.86901
228 1 2 6.83313 -1.24398 -3.50001
229 1 2 7.48621 -2.00597 -3.63101
230 1 2 7.27918 -1.41499 -4.38401
231 1 2 7.078 -0.864977 -5.15202
232 1 2 6.53821 -0.665977 -4.44102
233 1 2 7.0592 0.130033 -4.16902
234 1 2 6.797 0.728023 -4.91702
235 1 2 6.91809 1.57902 -4.36102
236 1 2 6.28406 1.09402 -3.92401
237 1 2 6.64221 1.76002 -3.35401
238 1 2 7.10413 2.50202 -3.81802
239 1 2 6.69324 3.27702 -4.10702
240 1 2 6.401 2.89303 -4.97601
241 1 2 5.61316 3.25802 -5.46601
242 1 2 5.776 4.17303 -5.67201
243 1 2 5.27918 4.99003 -5.84501
244 1 2 4.33801 5.16003 -5.74501
245 1 2 4.33801 4.82702 -4.84602
246 1 2 4.11316 5.79603 -4.82101
247 1 2 5.07922 5.61503 -4.92201
248 1 2 5.60413 5.86703 -4.19102
249 1 2 5.21716 6.62302 -4.81901
250 1 2 4.64905 6.42902 -5.56101
251 1 2 4.224 6.94102 -4.91201
252 1 2 4.85706 7.38702 -4.301
253 1 2 5.11218 6.96403 -3.46101
254 1 2 5.43616 6.50101 -2.61302
255 1 2 5.09705 5.82502 -3.22302
256 1 2 5.47107 5.34303 -2.48701
257 1 2 5.95618 5.06702 -1.77101
258 1 2 6.49109 5.53303 -2.34901
259 1 2 6.23303 5.87103 -3.19201
260 1 2 7.01111 5.32803 -3.49401
261 1 2 7.48914 5.30102 -2.65602
262 1 2 7.37219 4.41003 -3.04002
263 1 2 7.85706 4.36202 -2.16702
264 1 2 6.9762 4.69802 -1.98001
265 1 2 6.66809 4.03602 -1.39901
266 1 2 6.5282 4.78503 -0.856009
267 1 2 7.08606 4.19102 -0.428019
268 1 2 7.6991 3.84103 -1.16101
269 1 2 7.67712 4.75602 -1.13101
270 1 2 8.51404 4.35502 -0.696009
271 1 2 7.95422 4.87801 -0.0590188
272 1 2 7.67908 4.16402 0.481981
273 1 2 7.45203 4.25402 1.40398
274 1 2 7.41711 5.18401 1.37398
275 1 2 7.05212 4.76702 2.16298
276 1 2 8.03406 4.86202 2.23899
277 1 2 8.46619 4.03503 2.22699
278 1 2 7.51624 3.83302 2.42998
279 1 2 7.57605 2.94102 2.08199
280 1 2 6.92419 2.43102 1.61399
281 1 2 7.79407 2.16302 1.25599
282 1 2 8.11609 2.54702 0.439991
283 1 2 8.87317 2.40502 0.996981
284 1 2 8.48621 1.61703 0.612981
285 1 2 7.55701 1.58302 0.334981
286 1 2 7.01624 1.49203 1.11799
287 1 2 7.01209 0.675033 0.657991
288 1 2 7.02112 0.273023 1.58999
289 1 2 7.09216 -0.0449773 2.48198
290 1 2 7.74109 0.660033 2.25899
291 1 2 7.56018 1.59602 2.18099
292 1 2 8.31018 2.17202 2.26899
293 1 2 8.8761 2.92602 2.13299
294 1 2 8.25305 3.12601 2.88299
295 1 2 8.79309 2.52003 3.35199
296 1 2 8.25305 2.18902 4.03899
297 1 2 8.41711 2.14703 4.97699
298 1 2 8.08411 3.03002 5.04198
299 1 2 8.14905 3.95402 5.03699
300 1 2 7.23621 3.84002 4.84998
301 1 2 7.15515 4.77802 4.84499
302 1 2 7.69202 4.40202 4.12699
303 1 2 8.32019 4.13203 3.32799
304 1 2 8.19202 3.38902 3.96499
305 1 2 7.42517 2.86802 4.13599
306 1 2 7.29016 3.41702 3.39998
307 1 2 6.69421 3.98702 3.90499
308 1 2 6.31824 3.14703 4.18198
309 1 2 6.62122 2.47501 3.54799
310 1 2 6.30017 1.60001 3.56299
311 1 2 6.69006 1.07201 4.20798
312 1 2 7.25403 1.78602 3.90499
313 1 2 7.61511 2.31303 3.14599
314 1 2 8.10217 1.45902 3.11899
315 1 2 7.2301 1.03902 3.13498
316 1 2 6.6012 0.975013 2.37598
317 1 2 6.04822 0.183023 2.25298
318 1 2 6.23914 -0.544977 2.83799
319 1 2 6.40002 -0.744967 1.92199
320 1 2 5.89221 -0.403977 1.21299
321 1 2 6.63709 -0.313967 0.678991
322 1 2 7.01404 -0.103977 -0.171019
323 1 2 7.09802 -0.868977 -0.800009
324 1 2 7.31116 0.0170227 -1.17201
325 1 2 8.11023 -0.465977 -1.27401
326 1 2 8.64807 -1.19997 -1.05001
327 1 2 8.56409 -1.26998 -2.01802
328 1 2 8.14002 -1.88097 -2.59501
329 1 2 7.74304 -1.11398 -2.84901
330 1 2 8.16809 -0.883977 -3.61701
331 1 2 7.95813 -0.0329773 -3.20001
332 1 2 7.0221 -0.181977 -3.21202
333 1 2 7.06213 0.789023 -3.15602
334 1 2 7.69812 0.966033 -3.82501
335 1 2 7.8551 1.74802 -3.29602
336 1 2 8.03015 0.982023 -2.79202
337 1 2 8.16101 1.68702 -2.13301
338 1 2 8.60022 1.99403 -1.36401
339 1 2 8.69104 1.62302 -0.483009
340 1 2 8.71814 0.766013 -0.938009
341 1 2 8.2511 0.598013 -1.72901
342 1 2 8.59216 -0.122977 -2.32701
343 1 2 7.68103 -0.241977 -2.21501
344 1 2 6.88318 -0.749977 -2.20201
345 1 2 6.68005 0.135023 -2.15202
346 1 2 7.27918 0.851023 -1.78501
347 1 2 7.69324 1.37801 -1.11801
348 1 2 7.14221 0.989023 -0.467009
349 1 2 7.88611 0.487023 -0.268019
350 1 2 8.47205 0.639023 0.394991
351 1 2 8.87903 -0.162987 0.652991
352 1 2 8.69519 -0.270967 -0.306009
353 1 2 7.89612 -0.661977 -0.105009
354 1 2 7.69202 -0.0759773 0.679981
355 1 2 8.23523 0.133023 1.51598
356 1 2 7.87317 0.966033 1.30698
357 1 2 8.6471 1.05003 1.87398
358 1 2 9.10706 1.17503 2.71099
359 1 2 8.68518 0.295023 2.66898
360 1 2 7.9281 0.185023 3.25499
361 1 2 8.74402 0.518033 3.69799
362 1 2 8.70007 1.18002 4.43499
363 1 2 8.42004 0.478023 5.00499
364 1 2 8.10022 -0.188967 4.32599
365 1 2 7.24011 0.144023 4.53299
366 1 2 7.72913 0.838023 4.07198
367 1 2 7.55823 1.37103 4.80898
368 1 2 7.21301 2.17402 5.07198
369 1 2 6.474 2.19701 4.57099
370 1 2 5.87219 1.44502 4.78199
371 1 2 5.6532 0.669013 4.31199
372 1 2 6.245 -0.0269873 4.35999
373 1 2 5.61121 -0.134987 3.63299
374 1 2 6.1051 0.561033 3.24
375 1 2 6.90711 0.149033 3.61599
376 1 2 7.40906 -0.697977 3.28699
377 1 2 7.21008 -1.63398 3.40899
378 1 2 6.88806 -1.38198 2.58298
379 1 2 6.66516 -2.04998 2.018
380 1 2 7.16321 -2.46198 1.36298
381 1 2 6.86804 -3.35297 1.15099
382 1 2 7.21008 -4.20998 0.938991
383 1 2 7.86121 -3.55097 0.627981
384 1 2 7.94104 -3.71899 1.49698
385 1 2 7.53113 -3.33298 2.25899
386 1 2 6.64417 -3.04198 2.05399
387 1 2 5.85022 -3.59197 1.96999
388 1 2 5.58704 -2.70798 2.09499
389 1 2 5.9762 -2.32598 1.35199
390 1 2 5.74207 -1.38898 1.30298
391 1 2 5.81604 -1.53999 2.27799
392 1 2 5.01624 -1.91598 2.62999
393 1 2 4.48206 -2.59898 2.18799
394 1 2 4.16101 -3.36898 2.65598
395 1 2 3.78503 -3.13499 3.58899
396 1 2 4.05017 -2.36498 3.10799
397 1 2 3.86902 -1.74699 2.37798
398 1 2 3.99011 -1.99398 1.39499
399 1 2 4.73914 -1.46598 1.70598
400 1 2 4.56506 -1.52297 0.752981
401 1 2 5.33704 -1.19997 0.257991
402 1 2 4.65906 -0.700977 -0.220009
403 1 2 4.09412 -1.42799 -0.434019
404 1 2 4.98523 -1.84098 -0.541009
405 1 2 5.54919 -2.07298 -1.26301
406 1 2 5.47815 -2.84298 -1.77801
407 1 2 6.24109 -3.47797 -1.57301
408 1 2 6.50403 -2.63798 -1.31901
409 1 2 7.08704 -2.00198 -0.753019
410 1 2 6.71106 -1.67698 -1.52101
411 1 2 7.62708 -1.36898 -1.54701
412 1 2 8.13513 -2.11797 -1.22702
413 1 2 7.45813 -2.47398 -1.68901
414 1 2 7.97205 -3.25298 -1.62101
415 1 2 7.224 -3.50898 -1.08302
416 1 2 7.61414 -4.33398 -1.42501
417 1 2 7.19519 -3.85598 -2.14001
418 1 2 7.57703 -3.84498 -2.95901
419 1 2 7.62122 -2.94198 -2.72102
420 1 2 6.79211 -2.93198 -2.39701
421 1 2 5.91223 -3.18198 -2.72102
422 1 2 6.33313 -4.01098 -2.78301
423 1 2 6.44812 -4.68398 -3.41201
424 1 2 6.06409 -3.82098 -3.80401
425 1 2 6.32703 -3.01798 -4.29002
426 1 2 6.91907 -3.10798 -3.551
427 1 2 6.42004 -2.24297 -3.31101
428 1 2 7.03308 -1.94598 -2.57902
429 1 2 6.05115 -2.12399 -2.37901
430 1 2 5.23523 -1.74497 -2.22302
431 1 2 5.82214 -1.04198 -1.97502
432 1 2 6.25403 -0.389977 -1.37501
433 1 2 6.36023 0.518033 -1.14001
434 1 2 6.52722 1.42902 -1.36801
435 1 2 7.01502 2.19602 -1.57002
436 1 2 7.1532 1.63902 -2.39501
437 1 2 6.36511 1.15702 -2.36001
438 1 2 5.99109 0.641013 -3.02601
439 1 2 5.953 -0.276987 -2.79801
440 1 2 5.21301 -0.842977 -2.83901
441 1 2 4.89905 -0.619967 -1.99101
442 1 2 4.1991 -0.488977 -1.32002
443 1 2 3.94421 -1.15498 -2.04202
444 1 2 4.54919 -1.53298 -1.46202
445 1 2 4.53406 -2.40298 -1.82701
446 1 2 4.15515 -2.38998 -0.925999
447 1 2 3.52405 -2.03597 -1.49002
448 1 2 3.21521 -1.26698 -1.03102
449 1 2 3.02722 -0.563967 -1.65501
450 1 2 3.31824 0.313033 -1.36201
451 1 2 3.36902 0.559013 -0.424009
452 1 2 3.10706 -0.0199773 0.224981
453 1 2 3.63416 -0.483987 -0.445019
454 1 2 2.94812 -1.01897 -0.0830188
455 1 2 2.57605 -0.355977 -0.716009
456 1 2 2.24207 0.458023 -0.508009
457 1 2 2.05212 0.0630327 0.349981
458 1 2 2.21423 1.04401 0.464991
459 1 2 2.50916 1.92802 0.345981
460 1 2 3.12415 1.52901 -0.280009
461 1 2 3.44104 2.36402 0.113991
462 1 2 3.54309 1.88802 0.928991
463 1 2 3.28211 0.982023 0.627981
464 1 2 2.74304 0.570023 1.27099
465 1 2 3.4342 1.00903 1.73398
466 1 2 2.6781 1.04102 2.35698
467 1 2 2.81213 0.394023 3.12499
468 1 2 2.52112 0.696023 3.95499
469 1 2 1.89002 1.02802 3.44298
470 1 2 1.43323 0.489023 4.08098
471 1 2 1.71619 0.487023 4.98699
472 1 2 2.48914 0.846023 5.37598
473 1 2 3.1012 1.22802 4.70299
474 1 2 3.99304 0.949033 4.95499
475 1 2 4.79114 1.35902 4.59199
476 1 2 4.03113 1.47202 3.97999
477 1 2 3.68103 0.602033 3.93198
478 1 2 3.61902 0.0170227 4.63799
479 1 2 2.64417 -0.157977 4.75199
480 1 1 2.32312 -0.291977 3.93699
481 1 2 2.55505 -0.717977 3.05599
482 1 2 2.84021 -1.60497 2.83098
483 1 2 2.96716 -1.93098 1.94399
484 1 2 2.06824 -2.12498 2.40799
485 1 2 1.20911 -1.89999 2.73998
486 1 2 1.8822 -1.82697 3.40899
487 1 2 2.61316 -1.37698 3.90899
488 1 2 1.8822 -1.64198 4.518
489 1 2 1.68909 -0.720987 4.61799
490 1 2 0.923224 -1.31599 4.77599
491 1 2 0.962044 -1.57497 3.82099
492 1 2 1.57312 -0.870977 3.49698
493 1 2 1.74719 2.26725e-05 3.13698
494 1 2 1.11707 -0.00596733 2.44799
495 1 2 0.763064 -0.210977 1.59299
496 1 2 0.674194 0.689023 1.31199
497 1 2 1.21521 0.728023 0.490991
498 1 2 0.985234 -0.211977 0.572991
499 1 2 0.424194 -0.765977 0.0319912
500 1 2 0.589234 -0.527977 -0.872019
501 1 2 -0.126826 -0.575977 -1.50801
502 1 2 0.522104 -1.29298 -1.59402
503 1 2 0.326054 -2.25397 -1.74201
504 1 2 0.936164 -2.83099 -1.23001
505 1 2 1.4491 -2.34399 -1.92301
506 1 2 1.39124 -1.76798 -1.19201
507 1 2 2.05408 -1.23199 -0.629009
508 1 1 1.53113 -0.495977 -0.348019
509 1 2 1.19812 -1.42298 -0.135019
510 1 2 1.80505 -1.02297 0.515981
511 1 2 1.73523 -0.657977 1.33999
512 1 2 1.75501 0.285033 1.36498
513 1 2 2.21521 0.0160127 2.12198
514 1 2 3.19617 0.0680227 2.12699
515 1 2 3.45105 -0.733987 2.42199
516 1 2 3.66711 -0.977967 1.48299
517 1 2 3.81921 -0.693977 0.577991
518 1 2 4.16321 0.167023 0.306981
519 1 2 3.78919 0.0940227 1.13199
520 1 2 4.224 0.990013 1.06998
521 1 2 4.58411 1.81702 0.929981
522 1 2 4.2052 2.70602 0.760991
523 1 2 4.0221 2.57002 1.643
524 1 2 4.15418 1.68603 1.94599
525 1 2 4.7301 2.24502 2.36098
526 1 2 5.1471 2.47301 1.54398
527 1 2 5.81018 2.81602 2.13099
528 1 2 5.61804 2.30302 2.94399
529 1 2 5.49915 2.27901 3.92899
530 1 2 5.2782 1.43302 3.56998
531 1 2 4.599 1.31303 2.88698
532 1 2 5.47717 1.07302 2.546
533 1 2 5.14514 1.38203 1.70598
534 1 2 5.22009 0.416023 1.60499
535 1 2 6.078 0.696023 1.30498
536 1 2 5.38123 1.01402 0.742991
537 1 2 5.36121 1.79102 0.193991
538 1 2 5.86316 1.44903 -0.541009
539 1 2 6.38611 1.47202 0.251991
540 1 2 6.18201 0.564023 0.0899912
541 1 2 5.95422 -0.350967 -0.203999
542 1 2 5.29919 -0.0669773 0.370991
543 1 2 4.86023 -0.576967 1.18999
544 1 2 4.39807 -0.310977 1.94999
545 1 2 4.3031 0.607023 2.13599
546 1 2 3.69421 0.868023 2.80399
547 1 2 3.96619 -0.0129773 2.96999
548 1 2 3.37219 -0.404977 3.55898
549 1 2 3.78601 -1.25797 3.36399
550 1 2 4.6781 -1.59197 3.53098
551 1 2 5.42004 -1.07298 3.19799
552 1 2 4.61023 -0.907977 2.79398
553 1 2 5.33215 -0.591967 2.16599
554 1 2 5.04114 0.0710227 2.77898
555 1 2 4.77722 0.537033 3.57799
556 1 2 4.71619 0.176023 4.42998
557 1 2 4.38611 -0.572977 3.95499
558 1 2 5.15711 -0.815987 4.35898
559 1 2 5.34607 -1.27198 5.13599
560 1 2 6.26624 -0.989977 4.99599
561 1 2 6.72717 -0.271977 5.33799
562 1 2 7.03113 -0.756977 6.17899
563 1 2 7.19202 -1.46497 5.45699
564 1 2 6.93323 -2.03298 6.23099
565 1 2 6.15711 -1.48998 5.94399
566 1 2 6.28821 -2.20098 5.30098
567 1 2 5.46008 -2.25597 5.74199
568 1 2 4.74011 -2.38598 6.31699
569 1 2 4.44421 -1.65298 5.837
570 1 2 3.57703 -1.55097 6.18899
571 1 2 4.03113 -0.718987 6.30399
572 1 2 3.37122 -0.659977 5.62099
573 1 2 3.06311 -0.489977 6.54398
574 1 2 3.62219 0.119033 6.87499
575 1 2 4.1532 0.879023 7.14798
576 1 2 4.75501 0.304023 6.67399
577 1 2 4.17322 0.832023 6.06299
578 1 2 4.31604 0.0570127 5.48299
579 1 2 4.44812 -0.769977 5.09798
580 1 2 4.43005 -1.68098 4.65799
581 1 2 3.651 -1.92098 5.17299
582 1 2 2.88709 -2.24899 4.69399
583 1 2 2.78601 -2.18398 5.65999
584 1 2 2.7782 -2.65398 6.49499
585 1 2 2.06018 -2.62798 7.13299
586 1 2 1.84509 -2.58797 8.07599
587 1 2 1.29211 -3.27398 7.65299
588 1 2 1.01013 -4.11698 7.26699
589 1 2 0.225224 -3.76598 6.85099
590 1 2 0.182014 -4.72298 6.83799
591 1 2 0.349004 -5.63499 6.60199
592 1 2 1.04919 -5.30997 7.16698
593 1 2 1.67102 -4.73199 6.68799
594 1 2 2.55701 -4.55798 6.87099
595 1 2 3.15711 -4.66998 7.55799
596 1 2 3.82117 -3.90398 7.40198
597 1 2 3.92004 -2.99798 7.49
598 1 2 3.03406 -2.70098 7.71799
599 1 2 2.88416 -3.50797 7.13999
600 1 2 2.20813 -3.87798 7.69999
601 1 2 1.70813 -4.64698 7.85099
602 1 2 2.31311 -5.35497 7.62999
603 1 2 2.82117 -5.71998 6.85799
604 1 2 3.58215 -5.29198 6.63099
605 1 2 3.01917 -4.88699 5.99199
606 1 2 2.74402 -5.71798 5.76899
607 1 2 3.39514 -5.50597 5.10599
608 1 2 2.56213 -5.76798 4.67399
609 1 2 3.07312 -5.57398 3.90499
610 1 2 3.6781 -4.91698 4.13498
611 1 2 4.19324 -5.61198 4.40899
612 1 2 4.8822 -6.18798 4.60898
613 1 2 5.75916 -5.85497 4.38698
614 1 2 5.77722 -6.00098 3.46399
615 1 2 5.76819 -6.50698 2.65198
616 1 2 5.02014 -6.68998 3.34499
617 1 2 4.72009 -5.74899 3.48499
618 1 2 4.4801 -4.84098 3.33199
619 1 2 5.21301 -4.93098 3.98099
620 1 2 5.13001 -5.16499 4.91099
621 1 2 5.82703 -4.82899 5.53399
622 1 2 5.95813 -3.88699 5.83199
623 1 2 5.6322 -3.12498 6.37899
624 1 2 6.5221 -2.99097 6.01598
625 1 2 7.28211 -2.59798 5.33599
626 1 2 7.80505 -2.21998 4.65899
627 1 2 6.88318 -1.94398 4.40699
628 1 2 6.32117 -2.59197 4.00699
629 1 2 7.15711 -3.04798 4.21299
630 1 2 6.51502 -3.75999 4.19098
631 1 2 6.43005 -3.29398 4.99898
632 1 2 5.54407 -3.17597 5.14599
633 1 2 4.73816 -3.42397 4.73099
634 1 2 4.49207 -2.60899 5.22899
635 1 2 3.75305 -2.65798 5.90999
636 1 2 3.76502 -2.27097 6.82099
637 1 2 4.3302 -1.56498 7.06299
638 1 2 3.55212 -1.11797 7.17998
639 1 2 2.84802 -1.68398 6.97999
640 1 2 2.61414 -1.74497 7.87899
641 1 2 3.02918 -0.898977 8.06499
642 1 2 2.66419 -0.789987 8.91399
643 1 2 2.48718 -1.73698 9.02799
644 1 2 3.44617 -1.63699 8.86298
645 1 2 3.85413 -2.09998 8.11599
646 1 2 4.86707 -1.93497 8.21499
647 1 2 5.16711 -1.26998 7.56798
648 1 2 5.06311 -0.490967 8.16898
649 1 2 4.94519 0.342023 7.79198
650 1 2 4.91419 1.28402 7.75998
651 1 2 4.20715 1.01102 8.31699
652 1 2 3.54822 1.57201 8.76999
653 1 2 2.64002 1.31002 8.50699
654 1 2 2.66223 2.02602 7.91199
655 1 2 2.55115 2.32702 8.77698
656 1 2 1.78821 1.80003 8.72899
657 1 2 1.651 1.90902 7.78399
658 1 2 1.78821 2.72903 8.20299
659 1 2 1.59021 3.06402 9.09598
660 1 2 2.41809 3.40302 9.00499
661 1 2 2.099 3.89002 8.29499
662 1 2 2.57922 4.73702 8.12999
663 1 2 3.10706 3.98402 8.18499
664 1 2 2.85022 3.06602 7.84199
665 1 2 3.48718 2.82803 8.54099
666 1 2 3.86023 2.77203 7.66298
667 1 2 4.37317 2.13003 8.13599
668 1 2 5.05212 2.47501 7.50098
669 1 2 5.05408 3.37702 7.12598
670 1 2 4.75501 3.71201 6.23499
671 1 2 5.31213 4.45802 6.37398
672 1 2 4.49622 4.66402 6.91298
673 1 2 3.97717 4.50602 6.10299
674 1 2 3.06604 4.41901 6.296
675 1 2 2.81018 3.97102 7.10698
676 1 2 3.50208 4.55502 7.35199
677 1 2 4.06213 3.89503 7.81899
678 1 2 3.88904 3.68502 6.91298
679 1 2 3.26306 3.00503 6.87198
680 1 2 3.07312 2.12702 6.97999
681 1 2 3.60901 1.69903 7.64399
682 1 2 3.21912 0.845023 7.77599
683 1 2 2.49109 1.18803 7.40299
684 1 2 1.62 0.979033 7.13599
685 1 2 1.67004 0.892023 8.11999
686 1 2 0.801154 1.28802 8.30199
687 1 2 1.20618 1.05502 9.12798
688 1 2 1.21814 0.113013 9.13599
689 1 2 2.12415 0.286023 8.84798
690 1 2 3.01404 0.201033 8.56598
691 1 2 3.67615 -0.504977 8.82299
692 1 2 4.09607 -1.02398 8.10999
693 1 2 3.72815 -0.146977 7.85399
694 1 2 4.46814 -0.527977 7.34099
695 1 2 5.42419 -0.405977 6.97498
696 1 2 6.19617 -1.02297 6.99299
697 1 2 6.42517 -0.0829773 6.95598
698 1 2 6.02405 -0.407977 6.11999
699 1 2 5.74915 0.530023 6.09499
700 1 2 5.09509 0.780023 5.44999
701 1 2 5.43103 1.59702 5.80599
702 1 2 5.06506 1.51302 6.71299
703 1 2 4.172 1.82403 6.63898
704 1 2 4.29309 2.79702 6.57799
705 1 2 5.18005 2.57201 6.13999
706 1 2 4.59314 2.87902 5.52099
707 1 2 4.46619 1.88102 5.57099
708 1 2 3.76209 2.03802 4.91698
709 1 2 4.59021 2.39402 4.49799
710 1 2 5.13416 3.24203 4.60599
711 1 2 5.46106 2.41702 5.12099
712 1 2 6.22205 2.26902 5.70998
713 1 2 6.30115 3.09502 5.21198
714 1 2 7.13709 3.02901 5.67899
715 1 2 7.03211 2.46902 6.49499
716 1 2 6.0531 2.37601 6.77298
717 1 2 5.94812 1.66302 7.36298
718 1 2 5.82703 0.789023 7.13599
719 1 2 6.79602 1.05102 7.15099
720 1 2 6.40613 1.44502 6.37398
721 1 2 6.79822 0.555023 6.20299
722 1 2 7.45007 0.561033 5.51099
723 1 2 7.46106 1.35502 5.99299
724 1 2 6.73523 1.37801 5.40398
725 1 2 6.18323 0.571023 5.17598
726 1 2 5.55115 -0.168977 5.20099
727 1 2 5.06409 -0.631977 5.96399
728 1 2 5.23523 -1.41898 6.46799
729 1 2 5.62 -2.14698 6.95598
730 1 2 4.92712 -2.56197 7.46399
731 1 2 4.849 -3.45798 7.06299
732 1 2 5.08508 -4.19198 6.42299
733 1 2 4.81824 -5.05299 6.03098
734 1 1 4.39514 -5.74899 5.518
735 1 2 3.63709 -6.31397 5.75199
736 1 2 2.8302 -6.81098 5.41698
737 1 2 1.94812 -6.33698 5.45499
738 1 2 1.37415 -7.10398 5.42899
739 1 2 1.85706 -7.03197 4.64399
740 1 2 1.51917 -6.14698 4.43299
741 1 2 1.39002 -5.33498 4.80898
742 1 2 0.929084 -5.85598 5.38498
743 1 2 1.12122 -6.27998 6.20598
744 1 2 1.82312 -5.72498 6.49299
745 1 2 1.82703 -5.17197 5.77698
746 1 2 2.08215 -4.28698 5.84798
747 1 2 2.224 -3.36797 5.81499
748 1 2 1.92004 -3.60899 6.68099
749 1 2 1.22205 -3.09098 6.57999
750 1 2 0.487184 -3.08797 5.97899
751 1 2 0.171024 -2.66097 5.24799
752 1 2 0.943244 -2.19299 5.47599
753 1 2 0.849004 -2.01298 6.36599
754 1 1 -0.0628658 -2.05498 6.22699
755 1 2 0.138064 -1.56298 5.47399
756 1 2 0.915164 -1.10798 5.865
757 1 2 1.26111 -0.300967 5.47899
758 1 2 0.744024 0.658033 5.61899
759 1 2 -0.0948458 1.08302 5.76999
760 1 2 0.0721442 0.417023 6.47799
761 1 2 0.811164 -0.253967 6.42899
762 1 2 0.968144 -1.00698 7.02099
763 1 1 0.217164 -1.61198 7.18099
764 1 2 -0.0208658 -1.02097 6.42899
765 1 2 -0.766966 -0.365967 6.50499
766 1 2 -0.960806 0.461023 6.11899
767 1 2 -1.63586 0.553023 5.48198
768 1 2 -2.13684 -0.0169773 4.98899
769 1 2 -2.60388 0.0210227 4.18198
770 1 2 -1.6969 -0.180977 3.99599
771 1 2 -1.13196 -0.371987 4.81499
772 1 2 -0.647826 0.297023 5.17798
773 1 2 -0.0789758 0.922023 4.78299
774 1 2 0.311164 0.727033 3.89699
775 1 2 0.849004 0.848013 3.11699
776 1 2 0.205204 1.56002 3.10799
777 1 2 0.322144 2.39602 2.69999
778 1 2 0.122194 2.30003 1.78399
779 1 2 0.733034 1.49001 2.06998
780 1 2 1.50818 0.932013 2.23198
781 1 2 1.57019 1.32002 1.38199
782 1 2 1.9342 1.99603 1.92899
783 1 2 2.6532 1.61802 1.41599
784 1 2 3.09412 2.01803 2.08899
785 1 2 3.56921 1.92002 2.82999
786 1 2 3.01819 1.46803 3.47199
787 1 2 2.3761 1.87601 2.84998
788 1 2 2.95105 2.64402 3.17998
789 1 2 3.6322 2.49603 3.91799
790 1 2 4.4491 2.32403 3.43198
791 1 2 4.96423 3.09402 3.43099
792 1 2 4.45813 3.81503 3.03899
793 1 2 4.96716 3.32603 2.39699
794 1 2 4.17615 3.66402 1.94298
795 1 2 4.89002 3.39602 1.31998
796 1 2 5.69324 3.74802 1.62499
797 1 2 6.62219 3.69302 1.85299
798 1 2 6.48523 4.17002 1.04499
799 1 2 6.7511 3.53503 0.392981
800 1 2 7.42615 3.20602 0.971991
801 1 2 8.39612 3.61602 1.15999
802 1 2 8.39807 4.60203 1.24199
803 1 2 8.8551 4.31303 0.393991
804 1 1 8.59607 3.46403 -0.0300088
805 1 2 8.61707 2.82002 -0.775019
806 1 2 7.80212 2.36002 -0.552009
807 1 2 7.56604 3.19202 -0.217009
808 1 2 6.98206 3.05502 -0.929009
809 1 2 6.16003 3.41102 -0.612009
810 1 2 5.22107 3.05402 -0.568019
811 1 2 4.54211 2.41901 -0.256009
812 1 2 4.82214 1.69602 -0.794019
813 1 2 4.27112 1.34702 -0.0670088
814 1 2 5.02112 0.728023 -0.231009
815 1 2 4.35608 0.423033 -0.821009
816 1 2 4.43201 0.607023 -1.73101
817 1 2 3.78601 0.0620227 -2.25001
818 1 2 4.26502 -0.526987 -2.82701
819 1 2 3.25403 -0.598977 -2.88702
820 1 2 3.60315 -1.40098 -3.23802
821 1 2 4.46716 -1.63499 -2.93601
822 1 2 3.83411 -2.21598 -2.58102
823 1 2 2.97913 -2.50498 -2.93901
824 1 2 2.85022 -3.39498 -2.83901
825 1 2 2.92004 -3.22698 -3.76402
826 1 1 3.474 -3.75498 -4.27902
827 1 1 4.09412 -4.20098 -4.83302
828 1 1 3.41614 -4.00397 -5.45602
829 1 2 2.84705 -3.25298 -5.71301
830 1 2 3.00012 -2.36898 -6.15202
831 1 2 3.74304 -2.38499 -5.57701
832 1 2 3.90613 -3.23898 -5.91101
833 1 2 4.349 -3.64198 -6.67301
834 1 2 4.79919 -2.84098 -6.40002
835 1 2 4.76502 -2.49497 -5.49201
836 1 2 4.63318 -1.55097 -5.49501
837 1 2 4.49207 -0.983987 -4.74801
838 1 2 4.69617 -1.07198 -3.84201
839 1 2 3.97009 -0.533967 -3.86102
840 1 2 3.47913 -0.503967 -4.63702
841 1 2 3.44202 0.417023 -4.27301
842 1 2 2.77722 1.03602 -4.17901
843 1 2 2.39221 0.155023 -4.26501
844 1 2 2.88806 -0.529977 -3.82101
845 1 2 2.31018 -0.128967 -3.25601
846 1 2 2.34216 0.833023 -3.08401
847 1 2 3.19324 0.452023 -3.28901
848 1 2 4.18005 0.420023 -3.39701
849 1 2 4.08923 1.06002 -2.66801
850 1 2 3.30115 1.07502 -2.17001
851 1 2 2.67517 0.320023 -2.26101
852 1 2 2.14124 0.261023 -1.51101
853 1 2 1.33508 0.235023 -0.980009
854 1 2 0.398074 0.416023 -1.29901
855 1 2 -0.148796 1.01502 -0.750009
856 1 2 -0.656856 0.863013 0.0799912
857 1 2 0.0291842 0.342023 0.556981
858 1 2 0.611214 0.284023 -0.225019
859 1 2 0.950074 1.15502 -0.517009
860 1 2 0.353154 1.23502 0.238991
861 1 2 0.623174 1.70502 1.00298
862 1 2 -0.210806 1.22301 1.19999
863 1 2 -0.352896 1.30402 2.10399
864 1 2 0.0941242 0.568023 2.31299
865 1 2 -0.366816 0.679023 3.11699
866 1 2 -0.730826 -0.276987 3.10599
867 1 2 -0.373896 -0.105977 3.95499
868 1 2 -0.900996 0.604033 4.03499
869 1 2 -0.533806 1.47903 3.87198
870 1 2 -0.839966 2.20002 4.41898
871 1 2 -1.10998 1.37702 4.83199
872 1 2 -1.13 1.60502 5.74999
873 1 2 -2.02795 1.58402 5.45899
874 1 2 -2.09582 2.01702 4.63898
875 1 2 -1.74084 2.84402 4.41698
876 1 2 -2.20984 2.51002 3.63498
877 1 2 -1.80994 2.67802 2.78098
878 1 2 -1.67078 3.31103 3.43899
879 1 2 -2.02991 4.15502 3.16799
880 1 2 -1.64197 4.85902 3.59398
881 1 2 -1.65784 4.93401 2.66498
882 1 2 -1.91296 4.33402 1.94799
883 1 2 -1.40686 3.83903 1.33799
884 1 2 -0.665886 3.54302 0.749991
885 1 2 -0.0147658 4.07502 1.32198
886 1 2 0.220094 3.12801 1.16399
887 1 2 0.321174 3.39602 2.10499
888 1 2 -0.589966 3.22802 1.88498
889 1 2 -1.35388 3.53002 2.46499
890 1 2 -0.940796 4.09303 3.13898
891 1 2 -0.211786 3.90702 3.73398
892 1 2 -0.703976 3.22002 4.03798
893 1 2 -1.02087 3.43603 4.92899
894 1 2 -0.809936 4.33302 5.24
895 1 2 -0.724976 4.78303 6.04699
896 1 2 -1.03699 3.87801 6.24698
897 1 2 -1.73791 4.37801 5.83399
898 1 2 -2.55798 3.89002 6.046