LAMMPS data file via write_data, version 16 Mar 2018, timestep = 0

4000 atoms
2 atom types
4013 bonds
2 bond types

-9.6005279850161465e+00 9.0098765253169191e+00 xlo xhi
-9.8974120537156463e+00 1.0104194833389702e+01 ylo yhi
-9.9834850788053622e+00 9.8594000997459919e+00 zlo zhi

Masses

1 1
2 1

Atoms # bond

3473 1 2 -2.3289285990174968e+00 -7.4513947346982929e+00 -7.9110797201532321e+00 0 0 0
3991 1 2 -1.9419077937401219e+00 -8.5457658501247487e+00 -7.1706696928456157e+00 0 0 0
3474 1 2 -1.5213672694169025e+00 -7.8753927332526308e+00 -8.1879099096068284e+00 0 0 0
3476 1 2 -4.2357102432503918e-01 -7.5608493217941399e+00 -7.8606627492290020e+00 0 0 0
3980 1 2 -3.3593006797472040e+00 -5.9151570038649517e+00 -7.3396772531023764e+00 0 0 0
3981 1 2 -2.7347030262683494e+00 -6.2756004031744954e+00 -8.0333989949336786e+00 0 0 0
3982 1 2 -2.2202226560173868e+00 -5.8439355588368178e+00 -7.3443297506645600e+00 0 0 0
3481 1 2 -2.3041065406621328e+00 -5.5415544182880652e+00 -8.9040769702549323e+00 0 0 0
3482 1 2 -1.8415986078966102e+00 -4.9899265438048861e+00 -8.2855799697860082e+00 0 0 0
3480 1 2 -1.6311204959704353e+00 -6.0849197439696887e+00 -8.5385024324818843e+00 0 0 0
3483 1 2 -2.7643786693263670e+00 -5.1088770261685017e+00 -7.8701254895193502e+00 0 0 0
3486 1 1 -4.1196409120593449e+00 -5.0263998286163751e+00 -7.2421238349154109e+00 0 0 0
3472 1 2 -3.0099531246043467e+00 -7.0181909439138046e+00 -7.3020962914349070e+00 0 0 0
3475 1 2 -1.0712217950274003e+00 -6.9982737076462218e+00 -8.3873957246124586e+00 0 0 0
3983 1 2 -1.3712358936941749e+00 -5.2984901366866763e+00 -7.3777586166827618e+00 0 0 0
3477 1 2 -7.5221881781474398e-01 -6.9666593065919473e+00 -7.2659927278597447e+00 0 0 0
3478 1 2 -1.6169825766354839e+00 -6.6261831976534022e+00 -7.4905012029112070e+00 0 0 0
3479 1 2 -9.0954867668198291e-01 -6.1121606182860155e+00 -7.8760568822540211e+00 0 0 0
3361 1 2 6.5917371361375612e-02 -5.4591014927266048e+00 -8.4029371368861554e+00 0 0 0
3372 1 1 9.0500473086747324e-01 -5.8697967971674432e+00 -7.3598210750301343e+00 0 0 0
3362 1 1 -4.4407823170305344e-01 -5.0145782260838363e+00 -7.7365080993341406e+00 0 0 0
3375 1 1 2.8236049231321396e+00 -5.5659451678783087e+00 -7.5550524862784103e+00 0 0 0
3359 1 1 1.2773031897433327e+00 -5.1175160859146880e+00 -8.2701242884137649e+00 0 0 0
3488 1 1 -4.6703510084160653e+00 -3.6786812760424348e+00 -7.5645602227410702e+00 0 0 0
3484 1 2 -2.9664808283841095e+00 -4.7069696118159987e+00 -8.6859593842338096e+00 0 0 0
3485 1 1 -3.8028591429984600e+00 -4.6321137859090040e+00 -8.1313900395151695e+00 0 0 0
3877 1 1 -2.9805455914589487e+00 -3.7825648266811589e+00 -7.8904146273927118e+00 0 0 0
3489 1 1 -3.9967928357716587e+00 -3.1055936059258831e+00 -7.2436466983593490e+00 0 0 0
3857 1 1 -2.4682216469104050e+00 -3.0297802466269852e+00 -9.2414213011887334e+00 0 0 0
3858 1 1 -2.1490446401893415e+00 -3.8612921840982124e+00 -8.8865494227580815e+00 0 0 0
3878 1 1 -2.2900363218836697e+00 -4.3594718542754043e+00 -7.5288376768016319e+00 0 0 0
3860 1 1 -2.2235164416433593e+00 -3.1750395837151024e+00 -7.5221517951560477e+00 0 0 0
3859 1 1 -1.7847975969533070e+00 -3.1791348411174951e+00 -8.3642905573530939e+00 0 0 0
3876 1 1 -3.4189104895680416e+00 -4.1138788547531098e+00 -7.1552338276193197e+00 0 0 0
3490 1 1 -4.1168118308863662e+00 -2.6962213275815770e+00 -8.0970213388983705e+00 0 0 0
3933 1 1 -3.0456423678588638e+00 -2.7180853119273283e+00 -8.0103891197099522e+00 0 0 0
3884 1 1 -1.3891909159299938e+00 -3.2476698050359651e+00 -9.3359727752992221e+00 0 0 0
3360 1 1 5.2499722782819014e-01 -4.6032622033367581e+00 -7.9656472650157291e+00 0 0 0
3883 1 1 -1.0839045106339489e+00 -3.8927611254419721e+00 -8.7566046169671967e+00 0 0 0
3881 1 1 -7.8051728747390858e-02 -4.2030044977258054e+00 -8.7276485787274485e+00 0 0 0
3880 1 1 -4.3920882944629497e-01 -3.8883882115090387e+00 -7.9100931022271448e+00 0 0 0
3879 1 1 -1.2733355406449149e+00 -4.2216819512078221e+00 -7.7120026791932688e+00 0 0 0
3845 1 1 -1.1128062715086628e+00 -3.0854920265948098e+00 -7.5068298700864737e+00 0 0 0
3882 1 1 -8.1399203866223435e-01 -4.7956800458252884e+00 -8.7017415123168842e+00 0 0 0
3846 1 1 -7.0086832503466112e-01 -2.9221355424470494e+00 -8.3402104577249041e+00 0 0 0
3847 1 1 -2.9786260526161706e-01 -3.0870505701110389e+00 -9.1606746690542291e+00 0 0 0
3356 1 1 4.9716683240829490e-01 -3.8070073631460937e+00 -7.2347390702933296e+00 0 0 0
3350 1 1 4.7750255083552318e-01 -3.4276019871911467e+00 -8.3509838417996853e+00 0 0 0
3848 1 1 3.6281507324097051e-01 -3.6751892020117665e+00 -9.6496334283595466e+00 0 0 0
3353 1 1 -6.0592735118248621e-02 -2.8975818168462584e+00 -7.3787125592611646e+00 0 0 0
3351 1 1 1.0184726473397063e+00 -2.8345719397719527e+00 -7.7776756860760630e+00 0 0 0
3849 1 1 8.0190449645092143e-01 -2.8894015837376394e+00 -9.2301497031058801e+00 0 0 0
3352 1 1 2.8808365223532295e-01 -2.3999856911805555e+00 -8.1358620489808420e+00 0 0 0
3376 1 1 2.9877343276474080e+00 -4.7112312304526629e+00 -7.9219020647927172e+00 0 0 0
3358 1 1 1.9662560473435724e+00 -4.6090116848470073e+00 -7.8800544077328807e+00 0 0 0
3377 1 1 3.6452245056826444e+00 -3.9672797451753734e+00 -8.2533263116632298e+00 0 0 0
3357 1 1 1.2853128302325092e+00 -3.8866784454690411e+00 -7.7291227051810782e+00 0 0 0
3347 1 1 2.4854931198502306e+00 -3.8261542979756644e+00 -8.4489062061230271e+00 0 0 0
3348 1 1 1.7045439021177120e+00 -3.3071086172522244e+00 -8.6660051303021532e+00 0 0 0
3349 1 1 1.0867170596380564e+00 -4.0296647165457253e+00 -8.8155707592202344e+00 0 0 0
3812 1 1 2.9224691919002530e+00 -3.0232424200855830e+00 -7.8648110218627298e+00 0 0 0
3346 1 1 2.8325547931252868e+00 -3.2271204488102883e+00 -8.9898491173578385e+00 0 0 0
3811 1 1 2.0096440186585753e+00 -3.1866928042748679e+00 -7.6103663099738377e+00 0 0 0
3813 1 1 3.0785059532815371e+00 -3.7412281372855629e+00 -7.2354160535074472e+00 0 0 0
3345 1 1 2.3164292945832621e+00 -2.4662803953253016e+00 -9.1712456422208870e+00 0 0 0
3378 1 1 3.7460518922855051e+00 -3.0720364944709346e+00 -8.5314781646018112e+00 0 0 0
3257 1 1 3.8935549420282420e+00 -4.5072054064022851e+00 -7.3074380860313619e+00 0 0 0
3379 1 1 3.9770558836031196e+00 -3.2306134257239147e+00 -7.6313999128593419e+00 0 0 0
3380 1 1 4.6276892610166174e+00 -3.5241614662667771e+00 -8.2235327398537006e+00 0 0 0
3256 1 1 4.7424610938301299e+00 -4.1193032148428843e+00 -7.1785611341433393e+00 0 0 0
3381 1 1 4.8893372671055895e+00 -2.6542607597613235e+00 -7.8423589982024522e+00 0 0 0
3494 1 1 -4.9232699381151495e+00 -2.2949737598349280e+00 -7.4555581972149092e+00 0 0 0
3936 1 1 -4.4327177144533749e+00 -1.2435865204007392e+00 -7.3380127679169833e+00 0 0 0
3942 1 1 -5.2556708759959125e+00 -6.3938564290059319e-01 -7.1831585946441381e+00 0 0 0
3935 1 1 -4.0827612592594837e+00 -1.3416674436935230e+00 -8.1629220917012528e+00 0 0 0
3672 1 1 -4.1683950032459860e+00 -2.6670203550647248e-01 -7.8569679802980259e+00 0 0 0
3932 1 1 -2.7301763812691480e+00 -2.1012116391430196e+00 -7.4097814391649095e+00 0 0 0
3856 1 1 -2.4339718011444891e+00 -2.1705112788456016e+00 -8.7715280094404022e+00 0 0 0
3491 1 1 -3.7841429748659090e+00 -2.1251430439574976e+00 -7.4265102733152144e+00 0 0 0
3855 1 1 -2.0699859177283377e+00 -1.5456305628137128e+00 -9.4634886264155593e+00 0 0 0
3931 1 1 -1.8892970302955552e+00 -2.1947450349262492e+00 -7.8604863340079829e+00 0 0 0
3934 1 1 -3.3224841941487826e+00 -1.8797865537257303e+00 -8.3753598265359006e+00 0 0 0
3927 1 1 -3.1410793692633106e+00 -2.5248819837700009e-01 -8.3365894253765660e+00 0 0 0
3928 1 1 -2.7256246021586343e+00 -9.5928376786675318e-01 -8.7998367700627789e+00 0 0 0
3914 1 1 -1.6971416817801606e+00 -5.8467070176983282e-01 -9.0194285171648989e+00 0 0 0
3929 1 1 -2.6388704869772606e+00 -1.1948701078621247e+00 -7.8949551069246562e+00 0 0 0
3930 1 1 -1.7780438771049667e+00 -1.2995881079486993e+00 -8.1945022673346823e+00 0 0 0
3916 1 1 -1.7612522690121946e+00 -5.0948829697661624e-01 -7.2883748753348971e+00 0 0 0
3915 1 1 -2.0815072492899414e+00 -3.2929591686335530e-01 -8.1458720311094250e+00 0 0 0
3926 1 1 -2.8512822046420379e+00 -2.6226330486117111e-01 -7.3496019711499390e+00 0 0 0
3885 1 1 -1.3920535102073910e+00 -2.3175921126284660e+00 -8.9486661528604827e+00 0 0 0
3886 1 1 -9.3058042817315090e-01 -1.8431954096312582e+00 -8.3312815172460972e+00 0 0 0
3887 1 1 -8.1537959445132979e-01 -2.1006561745618599e+00 -7.4627639092691744e+00 0 0 0
3895 1 1 8.5992922618458578e-01 -1.8225207628445448e+00 -7.3718223011387041e+00 0 0 0
3851 1 1 6.4290567506871399e-01 -1.5676228560539471e+00 -9.5484126532464089e+00 0 0 0
3854 1 1 -1.0421478945753218e+00 -1.3630864723400784e+00 -9.4215101650829123e+00 0 0 0
3853 1 1 -4.9001056740624027e-01 -1.8761996079895673e+00 -9.9814993491630268e+00 0 0 0
3899 1 1 -5.9996031616795686e-01 -5.3310424132939627e-01 -9.8086975849576952e+00 0 0 0
3889 1 1 -3.9916779999761892e-01 -5.6306270141613057e-01 -7.1653597741117654e+00 0 0 0
3890 1 1 2.6166207585835355e-01 -4.8066573881940228e-01 -7.8955838117724193e+00 0 0 0
3913 1 1 -8.1361903470257702e-01 -6.4938758838955790e-01 -8.6544657098295481e+00 0 0 0
3896 1 1 2.6037646952674166e-02 -1.5251691123552147e+00 -7.7703008970826577e+00 0 0 0
3852 1 1 -2.0671238067785086e-01 -1.9538477083824441e+00 -9.0515079063228452e+00 0 0 0
3898 1 1 1.6008974684748811e-01 -6.5152456958764460e-01 -9.2299126744135087e+00 0 0 0
3888 1 1 -9.1361476263239283e-01 -1.1538974475107433e+00 -7.6170971515749990e+00 0 0 0
3897 1 1 6.3637676497387963e-01 -1.2010042581977207e+00 -8.5310790321492522e+00 0 0 0
3912 1 1 -9.4248244042424478e-01 -2.0582528946534253e-02 -7.9753875741376818e+00 0 0 0
3805 1 1 9.2343040145157507e-01 2.1199913239471620e-03 -8.5902393720441008e+00 0 0 0
3850 1 1 1.1665511217231042e+00 -2.0916381696604813e+00 -8.8635405260967559e+00 0 0 0
3810 1 1 1.9483990997636178e+00 -2.3881629546993253e+00 -8.0719954673803134e+00 0 0 0
3344 1 1 2.9862172899948680e+00 -2.0742018325207350e+00 -8.5307519542802464e+00 0 0 0
3342 1 1 2.7121583197733150e+00 -2.1130394704088973e+00 -7.2174994744990180e+00 0 0 0
3251 1 1 3.6520673457641335e+00 -2.0678365024091829e+00 -7.6047899057093522e+00 0 0 0
33 1 1 1.6878876059304870e+00 -1.5971096837635157e+00 -9.7867949262008604e+00 0 0 0
34 1 1 1.3014992092491435e+00 -8.6304956034659530e-01 -9.3454626717044231e+00 0 0 0
3343 1 1 2.5254110039333555e+00 -1.5011820213435507e+00 -7.8904999859463691e+00 0 0 0
3809 1 1 1.5451690307411312e+00 -1.5625913620650551e+00 -8.0997966086106068e+00 0 0 0
32 1 1 2.1790890526886590e+00 -1.3938175170627702e+00 -8.9172626764193819e+00 0 0 0
31 1 1 2.9665636928139025e+00 -9.3575422149295995e-01 -8.8455284271705779e+00 0 0 0
3806 1 1 1.8651555271808116e+00 -3.7829183561101848e-01 -8.5823374546061739e+00 0 0 0
3807 1 1 2.2005111461863822e+00 -6.1811508477514365e-01 -7.6566336960451524e+00 0 0 0
3808 1 1 1.2275049172296200e+00 -7.6008158193352304e-01 -7.7295384818502120e+00 0 0 0
29 1 1 3.2602311070875785e+00 -7.7326307364218672e-01 -7.7544874510268160e+00 0 0 0
35 1 1 2.1671302531980654e+00 -4.9383524040818416e-01 -9.5250916190166546e+00 0 0 0
44 1 1 3.6927086621152903e+00 -4.9363664336000826e-02 -8.8477772174802354e+00 0 0 0
3382 1 1 4.7266261373552725e+00 -1.7293780329508270e+00 -7.6642290933986743e+00 0 0 0
30 1 1 3.8295669820907139e+00 -1.2055179650465842e+00 -8.3319044027935512e+00 0 0 0
3383 1 1 4.5222949899020266e+00 -7.8580541763894762e-01 -7.4612300188597569e+00 0 0 0
3389 1 1 5.7049457725848756e+00 -1.1111095665012958e+00 -7.7115324036678032e+00 0 0 0
45 1 1 3.9932081339433312e+00 -1.8367614413729017e-02 -7.9858906859703982e+00 0 0 0
3670 1 1 -5.1547806179026789e+00 1.0880131096805601e+00 -7.4501027611103030e+00 0 0 0
3671 1 1 -4.5474578899459770e+00 3.4765950500591908e-01 -7.2145225715853636e+00 0 0 0
3669 1 1 -4.3797364744083618e+00 1.3048105692295002e+00 -7.8777504012494219e+00 0 0 0
3660 1 1 -4.3706866469667238e+00 2.5194070465388418e+00 -7.3351312189744835e+00 0 0 0
3673 1 1 -3.6621430908386050e+00 4.8346531412072224e-01 -7.7916242145955872e+00 0 0 0
3674 1 1 -3.3959430346885608e+00 8.2561043199139106e-01 -8.6688872172072244e+00 0 0 0
3675 1 1 -2.5300159422533919e+00 6.2328361118593578e-01 -8.3791497892199143e+00 0 0 0
3902 1 1 -1.6816455261266483e+00 7.3544437926730710e-01 -7.7862777280616022e+00 0 0 0
3650 1 1 -3.2175649729639777e+00 1.5315599134114146e+00 -7.8611536275154483e+00 0 0 0
3676 1 1 -2.4503046900051975e+00 1.5530672845244440e+00 -8.6373585724324666e+00 0 0 0
3648 1 1 -2.1619708662453676e+00 1.8985111505911103e+00 -7.4654636037212239e+00 0 0 0
3677 1 1 -2.1342125883152385e+00 2.4389163339227728e+00 -8.4122542175869626e+00 0 0 0
3651 1 1 -3.1801220418990219e+00 2.5456175227450442e+00 -7.7127688663462619e+00 0 0 0
3632 1 1 -2.7781021318156021e+00 7.6806733622449619e-01 -7.1538694122137114e+00 0 0 0
3900 1 1 -8.4847871759494542e-01 2.3291960532879635e-01 -9.2811148714188132e+00 0 0 0
3901 1 1 -1.4947852950761684e+00 5.4112369759124723e-01 -8.6634561805957571e+00 0 0 0
3911 1 1 -1.3328915584569628e-01 3.7890383776265119e-01 -8.3601552330535878e+00 0 0 0
3910 1 1 1.5533867246203598e-01 4.9057053008468399e-01 -9.2936246032069914e+00 0 0 0
3891 1 1 8.4254344515419766e-01 2.6759472809181839e-01 -7.5474320484588890e+00 0 0 0
3909 1 1 -5.0161203574340563e-01 1.2175783414173074e+00 -8.9743177768807101e+00 0 0 0
3903 1 1 -1.4511017008023723e+00 1.5125566067232352e+00 -8.2407491997639362e+00 0 0 0
3904 1 1 -6.7002394463211290e-01 1.0942764301342642e+00 -7.8758005078113129e+00 0 0 0
3905 1 1 -3.7899418589410638e-01 1.9880509488328859e+00 -8.1665759991794662e+00 0 0 0
3803 1 1 3.8161025785381186e-01 1.1484566033405414e+00 -7.9690743577422607e+00 0 0 0
3647 1 1 -1.3199232885682004e+00 1.6996515628719850e+00 -7.2045577543105024e+00 0 0 0
3683 1 1 -2.3775696293962123e-01 2.5296072405128731e+00 -7.3176439228883821e+00 0 0 0
3802 1 1 6.3976880274576364e-01 1.9929675377240368e+00 -7.6399710528821911e+00 0 0 0
3908 1 1 3.8937228753844444e-01 1.6587180874643628e+00 -9.0616442379280002e+00 0 0 0
3906 1 1 -9.7804571288688913e-01 2.5465166817016311e+00 -8.6705569721929248e+00 0 0 0
3646 1 1 -1.2805400959720634e+00 2.5359775568812184e+00 -7.6650585543744016e+00 0 0 0
3907 1 1 -2.7066733571100343e-01 2.2982758002351233e+00 -9.2779680111716836e+00 0 0 0
43 1 1 2.8937754907069846e+00 1.2759287587903320e-01 -8.3065105238098127e+00 0 0 0
3804 1 1 1.0377774958623045e+00 8.8828559811761054e-01 -8.6342193786408377e+00 0 0 0
36 1 1 1.5406322792898965e+00 2.4808635009976723e-01 -9.5350255456854605e+00 0 0 0
37 1 1 2.1430010471464698e+00 5.9329993928579883e-01 -8.9010568202510552e+00 0 0 0
42 1 1 3.2998682200767600e+00 1.0558924319607184e+00 -8.4083378640726405e+00 0 0 0
56 1 1 1.8525123808068729e+00 4.4007622530439339e-01 -7.8394789123745729e+00 0 0 0
26 1 1 3.5590855905184462e+00 9.6935655649633434e-01 -7.3997910249123660e+00 0 0 0
41 1 1 2.5854177053876626e+00 1.2649324099378878e+00 -7.7915279790965259e+00 0 0 0
27 1 1 2.8143176972811546e+00 3.2192998875408574e-01 -7.1921084526732377e+00 0 0 0
38 1 1 1.9580688674262730e+00 1.5024741338426306e+00 -8.8575760337675131e+00 0 0 0
39 1 1 2.4383210686923986e+00 2.3718642160592207e+00 -8.5287206580584805e+00 0 0 0
57 1 1 1.4885983585306515e+00 1.3735349946138835e+00 -7.8102802673674852e+00 0 0 0
40 1 1 3.0011053445499183e+00 2.1064636028426333e+00 -7.8311326898201568e+00 0 0 0
58 1 1 1.8127105633014318e+00 2.2474041745777007e+00 -7.6762420397629860e+00 0 0 0
3799 1 1 1.2185917071681347e+00 2.2336921271092911e+00 -8.5720231951462758e+00 0 0 0
25 1 1 4.2950211561845597e+00 1.5932596147625908e+00 -7.7460585132516107e+00 0 0 0
24 1 1 3.9636123515873742e+00 2.3804210798890679e+00 -8.2449410446305915e+00 0 0 0
261 1 1 4.4309910233124832e+00 2.5611787775037511e+00 -7.2267875988889223e+00 0 0 0
46 1 1 4.3945248936207433e+00 4.2246356303333865e-01 -7.2302967249177374e+00 0 0 0
47 1 1 5.2430600728119359e+00 8.6821254641925549e-01 -7.2382352010791848e+00 0 0 0
3678 1 1 -2.3069757432056099e+00 3.1786598785845195e+00 -7.8352378417476167e+00 0 0 0
3679 1 1 -1.4419452913199409e+00 3.5777736305433847e+00 -7.7788720869281232e+00 0 0 0
3797 1 1 -2.5914545731771244e-01 3.1880270829983144e+00 -8.1069881279570595e+00 0 0 0
3798 1 1 4.3484494093409543e-01 2.6986175641663359e+00 -8.5504702687563352e+00 0 0 0
3680 1 1 -7.2077394293714636e-01 3.4588612475394003e+00 -7.1557055957954159e+00 0 0 0
3801 1 1 8.1008208576797625e-01 2.9457008767315109e+00 -7.4594401532054899e+00 0 0 0
3796 1 1 2.0229706037459153e-01 3.9349754947946591e+00 -7.6270252080792140e+00 0 0 0
3800 1 1 1.3739804628282475e+00 3.1493853294149412e+00 -8.1992710194197258e+00 0 0 0
22 1 1 2.6571266533098070e+00 3.2989849831229585e+00 -7.8276232520870916e+00 0 0 0
23 1 1 3.5263238063355291e+00 2.9873327552288189e+00 -7.6427578357325849e+00 0 0 0
3772 1 1 1.7096575915069292e+00 4.0152375914906679e+00 -7.5327801468027884e+00 0 0 0
3989 1 2 -2.1628593319373954e+00 -7.5856134163785400e+00 -6.0474090391158208e+00 0 0 0
3990 1 2 -2.5789995367585594e+00 -7.9267567520912836e+00 -6.9173029686467418e+00 0 0 0
3461 1 2 -2.0212519541722296e+00 -7.9648649825583817e+00 -4.3785677257711981e+00 0 0 0
3460 1 2 -2.3017949243834299e+00 -8.7396686118508828e+00 -4.8876960944115186e+00 0 0 0
2654 1 1 -3.2625114416783543e+00 -8.3493366324475353e+00 -4.6202820162351621e+00 0 0 0
3988 1 2 -2.7553640225455438e+00 -8.0628615808099759e+00 -5.5867934021034547e+00 0 0 0
3992 1 2 -2.0778049466522130e+00 -8.6186227836940894e+00 -6.2248802082972992e+00 0 0 0
3467 1 2 -1.4931652785992973e+00 -7.6194498785464662e+00 -7.0410691534408194e+00 0 0 0
3466 1 2 -6.6813072166661613e-01 -8.0182933072741189e+00 -6.9242219894717296e+00 0 0 0
3369 1 2 7.1394667506195741e-01 -7.4544682677731426e+00 -6.3587505820907948e+00 0 0 0
3995 1 2 4.9635048350117367e-02 -8.3365727409039980e+00 -6.0417165666162180e+00 0 0 0
3465 1 2 -1.0984211024969703e+00 -7.8563006718103452e+00 -6.0910789742722740e+00 0 0 0
3464 1 2 -1.5286544092117476e+00 -8.2020665879891013e+00 -5.3335831579398425e+00 0 0 0
3994 1 2 -7.0574506017061522e-01 -8.8615022964573154e+00 -6.3032681026710353e+00 0 0 0
3462 1 2 -1.1379134510807458e+00 -7.6646258691068487e+00 -4.4712011209799591e+00 0 0 0
3459 1 2 -1.4078336851297801e+00 -8.9419760100371892e+00 -4.4656532467412253e+00 0 0 0
3997 1 2 -5.1808736107183273e-01 -8.7785687552499798e+00 -5.1395132943646402e+00 0 0 0
3457 1 1 -1.1452335095136205e-01 -8.3307344695129935e+00 -4.3319912907154796e+00 0 0 0
3993 1 2 -1.4656781536929990e+00 -9.1934519336167124e+00 -5.8389275395401716e+00 0 0 0
3998 1 2 4.3197940274403979e-01 -8.7601946172081426e+00 -5.2283511916257162e+00 0 0 0
3454 1 1 6.6715673125235209e-01 -7.7267605111694984e+00 -5.3354773645980131e+00 0 0 0
3999 1 2 4.7483343191333216e-01 -9.3482722405239986e+00 -6.0227240022582960e+00 0 0 0
3996 1 2 -3.3569808457474748e-01 -7.8067131115094615e+00 -5.2455219205884882e+00 0 0 0
3455 1 1 1.0904902408619279e+00 -7.9121767434529291e+00 -4.5535348137335188e+00 0 0 0
4000 1 2 1.0950165316606659e+00 -8.4974181647724993e+00 -6.0670772360887399e+00 0 0 0
3452 1 1 1.9328939738748581e+00 -7.5939825432873302e+00 -6.3723290783147615e+00 0 0 0
3453 1 1 1.6188248600037554e+00 -7.8016090557260327e+00 -5.4402132502554981e+00 0 0 0
3405 1 1 2.2665061357369565e+00 -7.6919103534201181e+00 -4.5153361117181809e+00 0 0 0
3451 1 1 2.7415348218092195e+00 -7.5005406549869056e+00 -5.8892371922993521e+00 0 0 0
3404 1 1 3.1660023625761635e+00 -7.4141292301738497e+00 -4.6036310952392805e+00 0 0 0
3976 1 1 -5.2889442030198355e+00 -5.5515073791520404e+00 -5.6533252727807559e+00 0 0 0
3975 1 1 -4.9773533274145185e+00 -6.1114353137354067e+00 -6.3122623190983287e+00 0 0 0
3514 1 1 -5.4635560761248501e+00 -5.9672571777427379e+00 -4.6230278985472335e+00 0 0 0
3974 1 1 -5.2083032351035596e+00 -6.5551104530799842e+00 -5.5418183472110787e+00 0 0 0
3972 1 1 -4.4249849767773757e+00 -6.3669860774721903e+00 -4.6859526982447335e+00 0 0 0
3973 1 1 -5.0669014777388828e+00 -7.0333099458103172e+00 -4.7542861355819941e+00 0 0 0
3513 1 1 -4.7310518667119652e+00 -5.3539503481662365e+00 -4.4702128557962792e+00 0 0 0
3977 1 1 -4.5586140149808845e+00 -5.0317726949130392e+00 -6.0315846653914216e+00 0 0 0
3979 1 2 -3.9526384698249273e+00 -6.5278651662368716e+00 -6.8961092782778257e+00 0 0 0
3471 1 2 -3.1525389932927861e+00 -7.2219830981640820e+00 -6.4059174966656078e+00 0 0 0
3469 1 2 -2.2498125470587538e+00 -6.6354489817649860e+00 -6.7062709242836149e+00 0 0 0
3968 1 1 -3.6202112290889898e+00 -7.3894484305630899e+00 -5.4025216148103095e+00 0 0 0
3987 1 2 -2.5356373524908222e+00 -7.2800909877572808e+00 -5.0987397823883862e+00 0 0 0
3470 1 2 -3.0597348996244538e+00 -6.2804282615759242e+00 -6.3681083201012560e+00 0 0 0
3840 1 1 -2.9711664944307015e+00 -5.1385906349624548e+00 -6.6857154927019433e+00 0 0 0
3978 1 1 -3.9136869124857494e+00 -5.6894006619467259e+00 -6.3946449032384391e+00 0 0 0
3970 1 1 -4.1674683087262867e+00 -6.6003775237250837e+00 -5.8150174037543660e+00 0 0 0
3969 1 1 -3.3773134732670727e+00 -6.4416705384781094e+00 -5.2733481864527052e+00 0 0 0
3971 1 1 -4.2301605516067200e+00 -5.7380106331300276e+00 -5.3544252449233944e+00 0 0 0
3828 1 1 -3.6515593026522866e+00 -5.5256463964316431e+00 -4.4920732896077080e+00 0 0 0
3838 1 1 -3.1779220277920839e+00 -5.4572867602872925e+00 -5.7050638402534606e+00 0 0 0
3985 1 2 -2.1677682360149855e+00 -5.7272991953233339e+00 -6.0953060836780715e+00 0 0 0
3837 1 1 -2.6970347065532274e+00 -5.7349883087617481e+00 -4.9404945432304626e+00 0 0 0
3986 1 2 -2.3317742535595989e+00 -6.5500100415990268e+00 -5.6173776687056991e+00 0 0 0
3865 1 1 -1.7698391601410952e+00 -5.1852293423453810e+00 -4.9932855214417078e+00 0 0 0
3836 1 1 -1.8915550876527758e+00 -6.3349000070876738e+00 -4.7747619789267555e+00 0 0 0
3967 1 1 -4.0245901412854872e+00 -7.3406855926784003e+00 -4.5198267967692960e+00 0 0 0
3370 1 2 3.0778610513756877e-01 -6.8016727198481197e+00 -6.9780423453355569e+00 0 0 0
3371 1 1 5.8621846273452835e-02 -5.8109049264276642e+00 -7.0133770745460966e+00 0 0 0
3468 1 2 -1.4233994546747399e+00 -6.9088092711179643e+00 -6.3981682216538474e+00 0 0 0
3984 1 2 -1.3492412411919750e+00 -5.8450282674511511e+00 -6.6059699819461564e+00 0 0 0
3463 1 2 -1.5040292880890920e+00 -7.2069311087186163e+00 -5.2294681287239424e+00 0 0 0
3368 1 2 -2.3526511404124856e-01 -7.2890662472920198e+00 -6.1817184755384691e+00 0 0 0
3367 1 2 -5.3316410320196461e-01 -6.3271204325650645e+00 -6.0637881831028482e+00 0 0 0
3366 1 2 -1.3359607190190361e+00 -6.0624869271722250e+00 -5.5158481144183735e+00 0 0 0
3821 1 1 -3.1184172119672238e-01 -5.8040487398896001e+00 -5.1606619332796582e+00 0 0 0
3365 1 1 -1.1157151459559345e+00 -5.1243502787124564e+00 -5.7556439369495198e+00 0 0 0
3364 1 1 -3.4651461556624463e-01 -5.2143598662568316e+00 -6.2819310788020726e+00 0 0 0
3820 1 1 -5.9853783177798203e-01 -6.7523135564159960e+00 -4.9763935543178146e+00 0 0 0
3819 1 1 2.6237577979247390e-01 -6.7142389735197403e+00 -5.4212304122095825e+00 0 0 0
3818 1 1 5.5539924074983549e-01 -6.0924425494841152e+00 -6.1338996124046972e+00 0 0 0
3411 1 1 2.9961536262441213e-01 -7.1827140994361462e+00 -4.5172692536827306e+00 0 0 0
3822 1 1 -1.0307381695206224e+00 -5.6616961883718675e+00 -4.5288947203659147e+00 0 0 0
3327 1 1 2.5161960307465349e-02 -5.3378157754923752e+00 -4.3522727127051732e+00 0 0 0
3329 1 1 6.8967676287674684e-01 -6.1304231372805065e+00 -4.6265253844624734e+00 0 0 0
3817 1 1 9.6759897594554867e-01 -5.1893442979867608e+00 -6.2163014169578528e+00 0 0 0
3374 1 1 1.9802437498731702e+00 -5.3806933909971866e+00 -7.0875888211183700e+00 0 0 0
3373 1 1 1.5090048438139108e+00 -6.1091535287139136e+00 -6.6753223317812838e+00 0 0 0
3330 1 1 1.0634412062692951e+00 -5.5208752073131340e+00 -5.2164188983036857e+00 0 0 0
3261 1 1 3.4212667882997558e+00 -6.4606152838574165e+00 -6.4516841463475414e+00 0 0 0
3450 1 1 2.4364890793282497e+00 -6.9116819247206713e+00 -5.2344549579652648e+00 0 0 0
3449 1 1 2.3005379539421753e+00 -6.4873957314138604e+00 -6.0351542508186098e+00 0 0 0
3448 1 1 1.4004857141391893e+00 -6.8566377643515128e+00 -5.7479692706646217e+00 0 0 0
3447 1 1 1.3135931349486956e+00 -6.9480585873250460e+00 -4.8510531698886190e+00 0 0 0
3331 1 1 1.8490065404148470e+00 -6.0222860787265837e+00 -5.1231620927778794e+00 0 0 0
3332 1 1 2.0114881386775352e+00 -5.4826546317833449e+00 -5.8263313168974857e+00 0 0 0
3336 1 1 2.9288809688538637e+00 -5.7943757506750408e+00 -5.3745736440044460e+00 0 0 0
3260 1 1 2.8420911048229338e+00 -5.7437377314929998e+00 -6.4867797004715841e+00 0 0 0
3335 1 1 2.5998182155234839e+00 -5.3900318171654975e+00 -4.5494737184782501e+00 0 0 0
3403 1 1 3.0648861752336218e+00 -6.4623114945884446e+00 -4.5179846834441015e+00 0 0 0
3262 1 1 3.4577220722540951e+00 -6.7019210939168126e+00 -5.5205331866725622e+00 0 0 0
3265 1 1 3.8724908881505637e+00 -5.8513637113362966e+00 -4.9551105188330880e+00 0 0 0
3267 1 1 3.8351478920416922e+00 -5.5200916577718830e+00 -6.8456595986232669e+00 0 0 0
3263 1 1 4.3781194317718670e+00 -6.4752201187156571e+00 -5.7888934530510801e+00 0 0 0
3269 1 1 4.9825853484881373e+00 -5.5413293072729575e+00 -5.6861733721663921e+00 0 0 0
3266 1 1 3.8820159446270188e+00 -5.5769902033170338e+00 -5.8859819110767919e+00 0 0 0
3272 1 1 5.4920015232929087e+00 -5.5508815118101982e+00 -4.5142203152270683e+00 0 0 0
3264 1 1 4.7060644306672694e+00 -6.3656204517932737e+00 -4.8833367366452753e+00 0 0 0
3273 1 1 4.6413851239444046e+00 -5.2309076272458785e+00 -4.6533733262254566e+00 0 0 0
3268 1 1 4.7185681384577309e+00 -5.2143182760115421e+00 -6.5816258418283908e+00 0 0 0
3271 1 1 6.1345902130527126e+00 -4.9690867813790920e+00 -4.9286894908706502e+00 0 0 0
3398 1 1 6.6785648107384468e+00 -5.7866581705344569e+00 -4.3462126541661235e+00 0 0 0
3501 1 1 -7.1477484774348250e+00 -3.6421188000441975e+00 -4.5166536991881348e+00 0 0 0
3502 1 1 -7.0736334161120062e+00 -4.3702759388009076e+00 -5.0626161853287952e+00 0 0 0
3531 1 1 -7.0878399439300823e+00 -2.7218282147353374e+00 -5.4476252862136318e+00 0 0 0
3530 1 1 -7.6632283218574289e+00 -2.7859138169400510e+00 -4.6672019043445756e+00 0 0 0
3487 1 1 -4.5118739302116637e+00 -4.2073732251741793e+00 -6.8240817667607834e+00 0 0 0
3496 1 1 -5.5572987309930957e+00 -4.0003424237818903e+00 -6.9582563537371760e+00 0 0 0
3495 1 1 -5.4599526849008431e+00 -3.0851131597438992e+00 -7.1429542851729755e+00 0 0 0
3512 1 1 -4.9728715712810194e+00 -4.6925458576886454e+00 -5.1236290495366283e+00 0 0 0
3503 1 1 -6.1283674764060816e+00 -4.4374670249334125e+00 -5.0968108376540888e+00 0 0 0
3504 1 1 -6.3524733421882935e+00 -3.8740556327594002e+00 -5.7921511621868094e+00 0 0 0
3505 1 1 -5.8204517646479275e+00 -3.1425525320881915e+00 -6.1876351550003204e+00 0 0 0
3498 1 1 -5.3273195248517302e+00 -3.5358530844428402e+00 -5.3626424373722656e+00 0 0 0
3497 1 1 -5.3206803075635030e+00 -4.1870297153402136e+00 -6.0661001143496538e+00 0 0 0
3520 1 1 -4.4746742633722256e+00 -3.3028690862737382e+00 -4.7407411105679165e+00 0 0 0
3509 1 1 -4.7275965018480841e+00 -3.3167965831682866e+00 -6.2471177785228145e+00 0 0 0
3507 1 1 -4.9759354850390460e+00 -2.5396556958137197e+00 -5.5816113603689361e+00 0 0 0
3518 1 1 -5.3952410967535513e+00 -3.9835396734669688e+00 -4.4136280494993123e+00 0 0 0
3500 1 1 -6.3000680980233845e+00 -3.2957867791328224e+00 -4.8864799596940314e+00 0 0 0
3499 1 1 -5.4647045764809032e+00 -2.9232108062030964e+00 -4.5944920730020558e+00 0 0 0
3510 1 1 -4.3079655300193123e+00 -3.9608805210271183e+00 -5.6255221723092115e+00 0 0 0
3842 1 1 -1.9365653164884251e+00 -4.8696175881757480e+00 -6.6620704242004152e+00 0 0 0
3839 1 1 -3.5211848931386567e+00 -4.6085643732173258e+00 -6.1091109479428258e+00 0 0 0
3864 1 1 -2.3576209639187642e+00 -4.8638643678742728e+00 -5.6528518532992651e+00 0 0 0
3511 1 1 -4.0151976836437759e+00 -4.7636965999627341e+00 -5.1633914235175196e+00 0 0 0
3867 1 1 -2.9527625768944614e+00 -4.6917782700447850e+00 -4.8246043546107433e+00 0 0 0
3875 1 1 -3.6498678886213174e+00 -3.5432099534538395e+00 -6.3747518828869199e+00 0 0 0
3874 1 1 -2.7691628054597373e+00 -3.1271966521014396e+00 -6.5778286111554323e+00 0 0 0
3841 1 1 -2.5960037075718998e+00 -4.2282080329896177e+00 -6.5468981652464828e+00 0 0 0
3521 1 1 -3.5963087832510343e+00 -3.6441108253452614e+00 -4.9068585714870467e+00 0 0 0
3872 1 1 -2.7457347782679822e+00 -3.6957752644847277e+00 -5.6143375355972491e+00 0 0 0
3508 1 1 -4.0846953057281805e+00 -2.8480868940392501e+00 -5.7287022797403413e+00 0 0 0
3601 1 1 -3.5344094506112249e+00 -2.6431195124608196e+00 -4.7248253232132136e+00 0 0 0
3871 1 1 -2.6015658479903179e+00 -3.1960184876810840e+00 -4.8091573111097885e+00 0 0 0
3873 1 1 -2.1930363874277474e+00 -2.9885751968314551e+00 -5.8323327935025997e+00 0 0 0
3866 1 1 -2.0875900423762710e+00 -4.2715374650818472e+00 -4.7775433059050094e+00 0 0 0
3622 1 1 -1.6290503818269753e+00 -2.5371566830295165e+00 -6.7233734225445563e+00 0 0 0
3861 1 1 -1.7930979126087301e+00 -3.5838799823673919e+00 -6.7618767387323215e+00 0 0 0
3863 1 1 -1.6662404347893012e+00 -4.2398034443799499e+00 -5.9090067349319071e+00 0 0 0
3600 1 1 -3.0936925454909621e+00 -2.5559175414335349e+00 -5.5616312155740442e+00 0 0 0
3844 1 1 -6.8723502661936442e-01 -3.6826832361229598e+00 -6.8992097188852206e+00 0 0 0
3614 1 1 -1.5972046772164135e+00 -3.0569241043039499e+00 -4.9114746817935933e+00 0 0 0
3843 1 1 -1.1026439439901417e+00 -4.4937859242979332e+00 -6.6893793272239552e+00 0 0 0
3363 1 1 -1.0037339430977023e-01 -4.6173305096849262e+00 -6.9596352712328722e+00 0 0 0
3617 1 1 1.0950840926671536e-01 -4.8083496059675150e+00 -5.2932657628697708e+00 0 0 0
3616 1 1 -6.7840271011031117e-01 -4.6626630410399965e+00 -4.7829373701964784e+00 0 0 0
3619 1 1 -4.9920936935899890e-01 -4.1776802289605044e+00 -5.8906304844207158e+00 0 0 0
3862 1 1 -1.2076678624898793e+00 -3.3711684272917313e+00 -6.0452619368984539e+00 0 0 0
3612 1 1 -5.3344225855374250e-01 -2.9018441082526167e+00 -5.2708699493785902e+00 0 0 0
3620 1 1 -1.3970037722079820e-01 -3.3546902021579523e+00 -6.1558551681202003e+00 0 0 0
3618 1 1 -7.2285290146214777e-03 -3.8318299907873783e+00 -5.1866354950738387e+00 0 0 0