LAMMPS data file via write_data, version 16 Mar 2018, timestep = 0

4000 atoms
2 atom types
4013 bonds
2 bond types

-9.4660556504239235e+00 9.0860796073513566e+00 xlo xhi
-9.7482911235543401e+00 9.8782039326205542e+00 ylo yhi
-9.6458696035110538e+00 9.8116571719298875e+00 zlo zhi

Masses

1 1
2 1

Atoms # bond

1010 1 2 -1.9673608136730014e+00 -5.6267870681769976e+00 -6.9843101466580393e+00 0 0 0
1011 1 2 -2.2877490657972968e+00 -4.9578986041056288e+00 -7.6128664149004823e+00 0 0 0
944 1 2 -2.9864398597362740e+00 -4.3697172006576075e+00 -6.9443074578475095e+00 0 0 0
1009 1 2 -1.5407760730504603e+00 -5.7885229709580370e+00 -7.8374664575630160e+00 0 0 0
1007 1 2 -1.1351189127835517e+00 -6.3643224665887921e+00 -7.0481332787207354e+00 0 0 0
1024 1 2 5.6590724170297779e-01 -6.1485055116239735e+00 -7.8103175273399623e+00 0 0 0
1008 1 2 -6.2705739251986292e-01 -5.7791672510377374e+00 -7.5301645430482349e+00 0 0 0
1029 1 2 3.1065125296075446e-01 -5.2431775942444370e+00 -8.2584911207302305e+00 0 0 0
1014 1 1 2.6124402960693388e-01 -5.2924048719745258e+00 -7.2144372128491581e+00 0 0 0
1030 1 2 -6.5331877101988967e-01 -5.1642950222368134e+00 -8.3851137212628490e+00 0 0 0
1012 1 2 -1.3168515834201124e+00 -4.7452539226743919e+00 -7.5551560415103269e+00 0 0 0
1013 1 2 -3.5929459761767801e-01 -4.5939845276995284e+00 -7.4716957114905584e+00 0 0 0
1023 1 2 8.3760635418305904e-02 -6.5765195508532566e+00 -7.1243252703052535e+00 0 0 0
1025 1 2 1.1073318183767469e+00 -6.5190806931396992e+00 -7.1537615688050273e+00 0 0 0
1018 1 2 6.3130414233869780e-01 -4.2198801694152301e+00 -7.1731227921402301e+00 0 0 0
1031 1 2 -7.7568706683136068e-01 -4.1859537584238877e+00 -8.3184374722861509e+00 0 0 0
1028 1 2 1.1859491779373055e+00 -5.5975830796412867e+00 -8.4898845925533912e+00 0 0 0
1015 1 2 1.1686032133619386e+00 -5.0615014853382299e+00 -7.5328729758378641e+00 0 0 0
1016 1 2 1.3221947197030743e+00 -4.3396083933995762e+00 -8.1795794690232544e+00 0 0 0
1026 1 2 1.7492535815714811e+00 -6.0242958077398434e+00 -7.6986162101640057e+00 0 0 0
1027 1 2 1.9926462513673331e+00 -5.2033392512823875e+00 -8.1736852421152655e+00 0 0 0
747 1 2 3.0021341268484103e+00 -5.8735521921764464e+00 -6.9286206008470268e+00 0 0 0
759 1 2 3.5001888902220690e+00 -5.1188727254561561e+00 -7.4831895459748621e+00 0 0 0
748 1 2 2.3665514397198799e+00 -5.1822341137917123e+00 -7.1102562184522391e+00 0 0 0
760 1 2 2.8764873455960362e+00 -4.4542673921012863e+00 -7.6326831882510149e+00 0 0 0
761 1 2 2.4546501554254192e+00 -4.2633124805091125e+00 -8.4739246455744119e+00 0 0 0
776 1 2 1.8029257742552456e+00 -4.2497177391752192e+00 -7.2351918622613018e+00 0 0 0
1130 1 2 -4.5611497491543513e+00 -1.8640524661177804e+00 -6.9921527818680227e+00 0 0 0
1118 1 2 -2.1492174248620652e+00 -3.8996713982954816e+00 -7.3033650977468803e+00 0 0 0
1117 1 2 -2.7640193047395649e+00 -3.3532489973453816e+00 -7.7695111435127391e+00 0 0 0
1119 1 2 -1.8514749223217344e+00 -4.0509842714320561e+00 -8.1795773791684994e+00 0 0 0
1120 1 2 -1.5816404785128060e+00 -3.1947223586497979e+00 -8.1160061045801548e+00 0 0 0
1116 1 2 -2.6425698407565896e+00 -2.4336338587843835e+00 -7.9608063123273816e+00 0 0 0
1123 1 2 -1.7594174865905938e+00 -2.2868849711266805e+00 -8.5888378624730048e+00 0 0 0
1122 1 2 -1.8284322822339520e+00 -1.8431513141128351e+00 -7.7884641959480962e+00 0 0 0
1114 1 2 -2.2542309364177879e+00 -2.6394527292172669e+00 -7.0188864318804347e+00 0 0 0
1115 1 2 -2.7182743314279865e+00 -1.8032969211433205e+00 -7.2461496358470008e+00 0 0 0
941 1 2 -3.7007368800495284e+00 -2.5778373759190303e+00 -7.6185095878601929e+00 0 0 0
1124 1 2 -2.6089963423146805e+00 -1.7389620505304868e+00 -8.7682287808802855e+00 0 0 0
940 1 2 -3.6172305264925377e+00 -1.6262924091251398e+00 -7.8287827987913943e+00 0 0 0
848 1 2 -8.0523449893312504e-01 -2.6953972841061864e+00 -8.9430754695279617e+00 0 0 0
1121 1 2 -1.1831079632656614e+00 -2.5951573159395251e+00 -7.5004187232933059e+00 0 0 0
849 1 2 -1.0765249688402276e+00 -1.8761228643962873e+00 -9.3157956455144610e+00 0 0 0
1032 1 2 -1.0017977086882490e+00 -3.6974424696524966e+00 -7.4302139360126587e+00 0 0 0
1017 1 2 3.8017760614502527e-01 -4.0325525773400717e+00 -8.0799783556479667e+00 0 0 0
844 1 2 2.9785947401436408e-01 -3.2866613939168361e+00 -7.3690865352503110e+00 0 0 0
845 1 2 -3.1145085327337291e-01 -3.1012265909417143e+00 -8.0829338517268265e+00 0 0 0
846 1 1 -4.7705862184039834e-02 -3.4315125679080891e+00 -8.9486060280663242e+00 0 0 0
842 1 2 9.3130885691676168e-01 -2.3910430817779953e+00 -7.2608737085556898e+00 0 0 0
847 1 2 1.6398362470399827e-01 -2.5311461687269050e+00 -9.1459353731488910e+00 0 0 0
767 1 2 -1.5344564407277139e-01 -2.0701513066272774e+00 -7.3175871992339854e+00 0 0 0
765 1 2 7.7071894433534371e-01 -2.9149495386964093e+00 -8.3405235736115433e+00 0 0 0
766 1 2 2.6805778388677715e-01 -2.1590330117165970e+00 -8.1528639809239287e+00 0 0 0
850 1 2 -8.3592260538987606e-01 -1.7253460518684391e+00 -8.3745944619171748e+00 0 0 0
1112 1 2 -9.9930522753599316e-01 -1.5472520676218258e+00 -7.1643292914351928e+00 0 0 0
2128 1 2 7.0591236988931860e-01 -1.6076796552363801e+00 -8.9159646606479441e+00 0 0 0
768 1 2 4.4481862829179925e-01 -1.3469692307612158e+00 -7.2848880671742284e+00 0 0 0
843 1 2 1.2087342189657457e+00 -3.3270346128992156e+00 -7.5242214936700469e+00 0 0 0
764 1 2 1.3413125083400697e+00 -2.5460085243238866e+00 -9.0391819515732674e+00 0 0 0
762 1 2 2.5166588940978776e+00 -3.4731519270197460e+00 -8.9752671753535811e+00 0 0 0
771 1 2 1.9513486193310745e+00 -2.6188459266215438e+00 -7.8768185198827725e+00 0 0 0
763 1 2 1.6105560220666475e+00 -3.4205442301512901e+00 -8.7281222082316443e+00 0 0 0
775 1 2 2.2465857187543641e+00 -3.5948461221514707e+00 -7.7494925040401634e+00 0 0 0
774 1 2 3.1618332832897669e+00 -3.3903277064905173e+00 -7.6880876141102661e+00 0 0 0
778 1 2 2.0583212671537385e+00 -3.0948760598992604e+00 -6.9000699705751796e+00 0 0 0
773 1 2 2.9056807005847958e+00 -2.5582712662426412e+00 -7.2604179769586015e+00 0 0 0
772 1 2 2.8138399731631707e+00 -2.5591202338125121e+00 -8.2307644083054896e+00 0 0 0
2215 1 2 3.4322087015915410e+00 -2.5034339143633320e+00 -9.1097404191005200e+00 0 0 0
770 1 2 1.9606090434269547e+00 -2.0756746463863678e+00 -7.0901593888583774e+00 0 0 0
2222 1 2 3.1984827895939887e+00 -1.5935127908067257e+00 -7.0243551265542621e+00 0 0 0
2214 1 2 3.2028440729981567e+00 -1.6025668898380687e+00 -8.8271354156344870e+00 0 0 0
2207 1 2 1.9815570976475725e+00 -1.7700788176274844e+00 -8.7364367772481621e+00 0 0 0
2208 1 2 1.3220490902636821e+00 -1.7995388161330388e+00 -8.0686085776177787e+00 0 0 0
2206 1 2 2.4305917121283214e+00 -1.5841479659665207e+00 -7.9028706524203240e+00 0 0 0
751 1 2 4.0321641238046766e+00 -4.0549426713378542e+00 -7.7142800147860013e+00 0 0 0
2216 1 2 3.8244604198886463e+00 -3.1996921221486625e+00 -8.5327263934211341e+00 0 0 0
2218 1 2 3.7992296355941413e+00 -2.1693338281917760e+00 -8.1171431011851016e+00 0 0 0
2219 1 2 4.2138972019430243e+00 -1.3915619814764253e+00 -8.4503037340191227e+00 0 0 0
2217 1 2 4.2040945664789895e+00 -2.9053754301979069e+00 -7.6772305173969109e+00 0 0 0
752 1 2 4.8181713921032676e+00 -3.8249684793435934e+00 -7.2830827194223575e+00 0 0 0
2536 1 2 5.5741080259147591e+00 -2.6530112996185835e+00 -7.5417711320380070e+00 0 0 0
2541 1 2 6.3042302380790183e+00 -1.8005698002673771e+00 -6.9876111804051320e+00 0 0 0
2537 1 2 4.9133750780141190e+00 -2.0776974580879033e+00 -7.9031348969818271e+00 0 0 0
2223 1 2 3.8914307918255342e+00 -2.2434368914162390e+00 -6.9009647223741419e+00 0 0 0
2539 1 2 5.1508054607656213e+00 -1.8020951692233638e+00 -6.9206252597066689e+00 0 0 0
1129 1 2 -5.1473605803063593e+00 -1.1441138861585514e+00 -7.2949826075306667e+00 0 0 0
1128 1 1 -4.2539747596536763e+00 -8.5425795464003595e-01 -7.0054446590024924e+00 0 0 0
1188 1 1 -4.7376443109914064e+00 2.8829367954318641e-01 -7.2063619888376484e+00 0 0 0
1189 1 1 -4.9652496379269753e+00 1.1158656449893858e+00 -7.5280588628514868e+00 0 0 0
1127 1 1 -4.1190395008330922e+00 -6.0810498365034726e-01 -7.9989023513452251e+00 0 0 0
930 1 2 -3.7107961988652871e+00 -3.4211511092417372e-02 -7.0643948760144264e+00 0 0 0
1125 1 2 -2.5218107187003560e+00 -1.0154309785620304e+00 -8.1789886158541858e+00 0 0 0
1126 1 2 -3.3981373365438650e+00 -7.9656285053374176e-01 -8.5583870419373245e+00 0 0 0
932 1 2 -2.2622719854002264e+00 7.3671038537144982e-03 -7.9170471886374116e+00 0 0 0
931 1 2 -3.2334011872543744e+00 1.4648885092659910e-02 -7.8953096283212316e+00 0 0 0
854 1 2 -1.7915462984042625e+00 -1.0994081495590771e+00 -9.1135981505207688e+00 0 0 0
857 1 2 -2.8122891660973242e+00 -5.8222843223526742e-02 -8.8730412963941507e+00 0 0 0
855 1 2 -1.7228895868237317e+00 -2.1126911530072273e-01 -8.7726891167728187e+00 0 0 0
858 1 2 -2.6964429197903659e+00 7.4155007193034983e-01 -8.3876911977174373e+00 0 0 0
1107 1 2 -2.0058532039519554e+00 -9.0576308898039282e-01 -7.2672332331851255e+00 0 0 0
939 1 1 -3.1676100628026083e+00 -9.5077843069512014e-01 -7.3190558103689929e+00 0 0 0
933 1 2 -1.8692568593779639e+00 4.1808314565692095e-01 -7.2031474306590324e+00 0 0 0
1195 1 2 -3.7762729438529141e+00 1.0382161589073251e+00 -7.5673132522477742e+00 0 0 0
856 1 2 -2.2269021189722316e+00 -2.0765005387995555e-01 -9.6439220759139808e+00 0 0 0
1196 1 2 -2.8879587991869027e+00 9.1444186488536505e-01 -7.2826033442313731e+00 0 0 0
1792 1 2 -1.6075700897616172e+00 7.5834056257843263e-01 -8.2923132730646749e+00 0 0 0
2133 1 2 -1.7044965272799772e+00 7.4004009720926367e-01 -9.3609499800329647e+00 0 0 0
2129 1 2 -1.3355217422311527e-01 -1.2550535413678343e+00 -9.2626610133242000e+00 0 0 0
851 1 2 -1.3660298847082029e+00 -9.7050592357326793e-01 -8.0500904623569198e+00 0 0 0
853 1 2 -1.0113993120291702e+00 -7.4884287025796703e-01 -9.5587756469199761e+00 0 0 0
1791 1 2 -1.1290089223984006e+00 4.8886305174006162e-02 -7.8555412509474802e+00 0 0 0
1108 1 2 -1.1379169588134008e+00 -5.1505600436864551e-01 -7.0153574565732884e+00 0 0 0
852 1 2 -7.2251233599799092e-01 -6.2574012241369037e-01 -8.6541541744477026e+00 0 0 0
2131 1 2 -1.1266298364754677e-01 -3.1767070720460186e-02 -9.3061197181590458e+00 0 0 0
2130 1 2 5.6943378370794340e-01 -6.7425788294390865e-01 -9.4972741362911659e+00 0 0 0
1109 1 2 -3.6992138467783264e-01 -7.6017785281261741e-01 -7.5409713723782534e+00 0 0 0
2127 1 2 3.7735765472691263e-01 -8.5306229974759407e-01 -8.4147603670168039e+00 0 0 0
1797 1 2 7.1645709279778858e-01 -3.7313048128635073e-01 -7.5359925886916805e+00 0 0 0
2126 1 2 8.8433715930845869e-01 -1.2313600961803348e-01 -8.6104590492097071e+00 0 0 0
2125 1 2 1.0675862390906472e+00 2.5888487566121965e-01 -9.4501738058726357e+00 0 0 0
1789 1 2 -6.1934579651349492e-02 1.2168579155204416e-01 -8.0779050159938741e+00 0 0 0
1796 1 2 8.2207739894183596e-01 5.2346945665198252e-01 -7.6971163346335647e+00 0 0 0
2132 1 2 -8.7882115502015412e-01 3.9746678882229025e-01 -9.1084565311874535e+00 0 0 0
1788 1 2 3.2375603350640275e-01 7.9870575517130937e-01 -8.7182407854283870e+00 0 0 0
1790 1 2 -4.4933407829821109e-01 3.6449725021176338e-01 -7.2357054089218753e+00 0 0 0
1795 1 2 4.6878560016223697e-01 1.0279364851499349e+00 -6.9574674171164430e+00 0 0 0
869 1 2 -1.1207663836569002e+00 1.2036632087140191e+00 -7.3779981260128249e+00 0 0 0
2123 1 2 8.6391201324022204e-01 1.4470137698009871e+00 -9.3755717731397645e+00 0 0 0
1793 1 2 -6.6199295204773345e-01 1.0322007664300530e+00 -8.2877963865688002e+00 0 0 0
1787 1 2 -1.9465403520223504e-01 1.3389330349486659e+00 -9.3161259830866641e+00 0 0 0
1794 1 2 -4.9374759670837785e-02 1.3313026673595967e+00 -7.6045660735233893e+00 0 0 0
769 1 2 1.4054156933161517e+00 -1.3151857032617491e+00 -7.1386052439580991e+00 0 0 0
2210 1 2 1.5755489388451407e+00 -8.5205261547414868e-01 -9.1024772167311916e+00 0 0 0
2209 1 2 1.4679066623432653e+00 -8.7319728306411903e-01 -8.1791045074895639e+00 0 0 0
1798 1 2 1.5901218676901472e+00 -1.4213572774500824e-01 -7.3165776971672374e+00 0 0 0
2211 1 2 2.0204680190609534e+00 -4.4393275461384094e-02 -8.9143512276663266e+00 0 0 0
1799 1 2 1.9268914942371820e+00 5.2122728340287994e-01 -7.8687763374575761e+00 0 0 0
2221 1 2 3.3931410570731870e+00 -1.1666291257721151e+00 -7.8637209227051192e+00 0 0 0
2213 1 2 3.4492405346488626e+00 -6.5330119648217033e-01 -8.9905669315558665e+00 0 0 0
2205 1 2 2.5023038513424036e+00 -8.1458862896602979e-01 -7.3109214631863191e+00 0 0 0
2212 1 2 2.6104454115593749e+00 -7.5198973360649457e-01 -8.5625866502362822e+00 0 0 0
1869 1 2 2.8921544725290449e+00 4.5182579047650440e-02 -7.8631675581107014e+00 0 0 0
1870 1 2 2.9959043278433652e+00 2.3929528928440433e-01 -8.7975604567562282e+00 0 0 0
1868 1 2 3.5090307411310477e+00 3.7534617053754243e-01 -7.2597646105776494e+00 0 0 0
1871 1 2 3.3695700464396863e+00 9.3188674288067430e-01 -8.2513744397293944e+00 0 0 0
2201 1 2 3.4897268859470723e+00 -6.1693184483919228e-01 -7.0283945215120553e+00 0 0 0
1800 1 2 2.6096206663201067e+00 1.0065132474186262e+00 -7.3082829095190567e+00 0 0 0
2124 1 2 1.3953151323698438e+00 8.7973581944646007e-01 -8.7678764483269358e+00 0 0 0
2146 1 2 1.3439381858228110e+00 1.4328642737982380e+00 -7.4571790880659270e+00 0 0 0
2121 1 2 2.2805443941129240e+00 1.4300873115142909e+00 -9.2550225127232686e+00 0 0 0
1874 1 2 3.6738590525159016e+00 1.3797672334027729e+00 -7.0337428556954897e+00 0 0 0
2220 1 2 4.2543718524690597e+00 -1.3334268058823637e+00 -7.4949176491692970e+00 0 0 0
2538 1 2 5.4626488865595144e+00 -1.3110745595438456e+00 -7.7437032208083618e+00 0 0 0
1862 1 2 4.1241008230458531e+00 3.5837779922670060e-01 -8.8448766065512636e+00 0 0 0
1863 1 2 4.5744763328811695e+00 1.1531639942140892e+00 -8.5782419755426425e+00 0 0 0
1861 1 2 3.9080302428019360e+00 -1.4329941887037204e-01 -8.1356761301870097e+00 0 0 0
1860 1 2 4.7840638114283873e+00 -5.1778102350198529e-01 -8.2220740805575012e+00 0 0 0
2197 1 2 6.4000818851750072e+00 4.8455521223578372e-02 -7.5209681067630898e+00 0 0 0
2200 1 2 4.3773425365559673e+00 -3.1363387155989025e-01 -7.2142882835480684e+00 0 0 0
2198 1 2 5.6357820425153289e+00 -3.4911384703437354e-01 -7.2198420155260807e+00 0 0 0
1859 1 2 5.3488706788164651e+00 2.4041181166708372e-01 -8.0955931828209291e+00 0 0 0
1864 1 2 4.4291005121534441e+00 7.9865358439963552e-01 -7.6989058813863647e+00 0 0 0
1858 1 1 6.0446128043986374e+00 8.9248664745085060e-01 -8.2290326133573135e+00 0 0 0
1865 1 2 5.1072156697985820e+00 5.2450715059289710e-01 -7.0860507875619287e+00 0 0 0
1857 1 2 6.1624530849864136e+00 1.1281336649050160e+00 -7.3380874463643080e+00 0 0 0
2196 1 1 7.2068858527659678e+00 -2.3043819367918897e-02 -6.8911127160493777e+00 0 0 0
1192 1 1 -4.3061482027457147e+00 2.0692848501327399e+00 -7.8069678442933617e+00 0 0 0
1191 1 1 -5.1161626796471253e+00 2.2999888503022925e+00 -7.2891001582822827e+00 0 0 0
1194 1 2 -3.2850411909800799e+00 1.8318926094167536e+00 -7.9593088629354591e+00 0 0 0
1193 1 2 -3.6786255378798147e+00 2.7470326340054125e+00 -7.8892696723955691e+00 0 0 0
859 1 2 -2.3667392758602004e+00 1.5879386499419532e+00 -8.7931107005493363e+00 0 0 0
862 1 1 -2.4574068250192598e+00 3.4563848277564588e+00 -8.1692002940922439e+00 0 0 0
860 1 2 -2.1797076107684625e+00 1.5535613810774380e+00 -7.7738714426164384e+00 0 0 0
2137 1 1 -1.6151377460076213e+00 2.9437934694172294e+00 -7.6220615692059015e+00 0 0 0
861 1 2 -2.4092329172927003e+00 2.4681081625536248e+00 -8.0212343359251452e+00 0 0 0
1198 1 2 -3.5625589299934606e+00 1.9233552668114271e+00 -6.9487359004069864e+00 0 0 0
863 1 1 -1.6645040982857466e+00 3.9536638692008181e+00 -8.2119625135305157e+00 0 0 0
919 1 1 -3.9589750272810122e+00 3.6769667132866148e+00 -7.2534716219863151e+00 0 0 0
866 1 1 -2.9709835399996471e+00 2.8978067163638519e+00 -7.0552805901993407e+00 0 0 0
865 1 1 -2.7935553961371431e+00 3.8286564953679814e+00 -7.1854583737689293e+00 0 0 0
882 1 1 -1.5771048503087655e+00 3.9358477109499868e+00 -7.0904209952526589e+00 0 0 0
2136 1 1 -1.3362749323152587e+00 2.9454367738788063e+00 -8.5272647314087173e+00 0 0 0
2135 1 2 -1.3634821319388615e+00 1.9991487870055600e+00 -8.2516614511897721e+00 0 0 0
2138 1 2 -7.1774184581236122e-01 3.2617680905640043e+00 -7.7445747175472022e+00 0 0 0
2134 1 2 -1.2250454631052683e+00 1.5628206716984643e+00 -9.0950741168907676e+00 0 0 0
1786 1 2 -3.1815636026529470e-01 1.9804928317864052e+00 -8.5562372168569478e+00 0 0 0
2145 1 2 7.7642988839199856e-01 1.6084542864873119e+00 -8.2278839398282955e+00 0 0 0
2144 1 2 4.1428403457404489e-01 2.4060009394185893e+00 -7.8858751679117685e+00 0 0 0
2139 1 2 2.0463734616314708e-02 3.1480846250082686e+00 -7.1522806074865430e+00 0 0 0
1785 1 2 4.0800237462304517e-01 2.3817039021977191e+00 -8.9670864302814870e+00 0 0 0
1784 1 2 1.1959600332433117e-01 3.1580402424998364e+00 -8.5085727218981670e+00 0 0 0
1743 1 2 -6.0127609011180083e-01 2.2426461703750178e+00 -7.4652010524285126e+00 0 0 0
2140 1 2 8.6551929650051551e-01 3.4181476426280968e+00 -7.4253430558762439e+00 0 0 0
2143 1 2 1.1279564091642778e+00 2.4090969707474725e+00 -7.2360290488262695e+00 0 0 0
1783 1 2 2.6118140962631070e-01 3.9936098253150352e+00 -8.1417368076117622e+00 0 0 0
868 1 2 -1.4439483447528056e+00 1.9855001009202651e+00 -7.0524199425914160e+00 0 0 0
1750 1 1 4.0037232751170365e-01 4.1682059096019826e+00 -6.8663487382923867e+00 0 0 0
2122 1 2 1.4677876072754965e+00 2.0584588236745911e+00 -8.9755544567609515e+00 0 0 0
2115 1 2 1.9436202078321885e+00 3.5051536473886156e+00 -7.5105324744438526e+00 0 0 0
2120 1 2 2.6457728622850625e+00 2.1252033260192840e+00 -8.7272884201455678e+00 0 0 0
2118 1 2 1.9381422068425604e+00 2.4266039904133185e+00 -7.9724052899013778e+00 0 0 0
2116 1 2 1.6077616056116382e+00 3.8025077093300239e+00 -8.3443672273854546e+00 0 0 0
2117 1 2 1.2180914998351391e+00 2.8983815276468796e+00 -8.4185939809981605e+00 0 0 0
2119 1 2 2.1653416592474088e+00 1.5610107635578692e+00 -8.1466708347294734e+00 0 0 0
2114 1 2 2.6040958943246473e+00 3.2996303445100588e+00 -8.2094700412500874e+00 0 0 0
1875 1 2 3.1244427358545432e+00 1.9011605484997443e+00 -7.5810930212617471e+00 0 0 0
1876 1 2 3.6575044723757117e+00 2.5399771927598751e+00 -7.1945557134114955e+00 0 0 0
2113 1 2 3.4829286210729360e+00 2.8956466154731002e+00 -8.1708857237801418e+00 0 0 0
1878 1 2 3.3312640163754290e+00 3.5101759366915233e+00 -7.3296439657746042e+00 0 0 0
1877 1 2 2.6920037210039651e+00 2.8375196816582791e+00 -7.1763852894917690e+00 0 0 0
1805 1 2 2.2148204879433533e+00 1.9277247869520688e+00 -6.9416832161435931e+00 0 0 0
1872 1 2 3.6846356487084133e+00 1.7701774421570882e+00 -8.6156738902737509e+00 0 0 0
1873 1 2 4.1973931068509316e+00 1.8081594933136946e+00 -7.7818958070882092e+00 0 0 0
2112 1 2 4.4311686826554633e+00 2.9613380674861109e+00 -7.9395482968616182e+00 0 0 0
1854 1 2 4.6978160351509901e+00 2.4247653279966270e+00 -6.9732318462095435e+00 0 0 0
1856 1 2 5.4040932814719866e+00 1.6725317512728097e+00 -7.5139348196457778e+00 0 0 0
2110 1 2 5.2097484775692413e+00 3.5254546666732809e+00 -7.4618542690557694e+00 0 0 0
2111 1 1 5.3808252653828283e+00 2.6379182839796784e+00 -7.7785200440542690e+00 0 0 0
2055 1 2 4.2231321026187922e+00 4.0423008435108594e+00 -7.6241680965864580e+00 0 0 0
1851 1 2 6.1359215298072272e+00 3.1753678872523214e+00 -7.0962331793288049e+00 0 0 0
2109 1 2 5.0135889881555871e+00 4.2104841807184981e+00 -6.8704777352864603e+00 0 0 0
864 1 1 -2.3502424183624298e+00 4.4740251722992781e+00 -7.8060482275614094e+00 0 0 0
880 1 1 -2.4236663552053361e+00 4.8200662313565621e+00 -6.8776317672940479e+00 0 0 0
918 1 1 -3.6505264835038465e+00 4.6183037979646402e+00 -7.0968844979570544e+00 0 0 0
1782 1 1 -5.3293415820617174e-01 4.4090064786077638e+00 -7.7772702370605291e+00 0 0 0
881 1 1 -1.5111564318439414e+00 4.8981546478640441e+00 -7.1311256233492806e+00 0 0 0
1781 1 1 8.1527959705765235e-02 5.1211322709527982e+00 -7.3452490841498861e+00 0 0 0
1751 1 1 1.0879344189941311e+00 4.4549377613246230e+00 -7.4949277201030222e+00 0 0 0
1752 1 2 1.8551170494147122e+00 4.4287825139919565e+00 -6.9205428510537859e+00 0 0 0
1879 1 2 2.9077054357194183e+00 4.3321183737636568e+00 -7.3754348420057969e+00 0 0 0
2054 1 2 4.0864620089217203e+00 4.7271858427211608e+00 -6.9366737103139213e+00 0 0 0
1071 1 2 -2.0546039624180468e+00 -7.6405893419153292e+00 -5.1064220294553921e+00 0 0 0
1005 1 2 -1.5175513565193486e+00 -7.3268669183487365e+00 -5.9850285635326248e+00 0 0 0
1072 1 2 -2.9163099426014552e+00 -7.6480115447537154e+00 -4.7567447694494733e+00 0 0 0
1001 1 2 -2.5322328897374704e+00 -8.6888109401059399e+00 -4.1693309707922737e+00 0 0 0
1052 1 1 -1.5713951480405466e+00 -8.8682551231698099e+00 -4.3959942145168860e+00 0 0 0
1070 1 2 -2.6039617691889783e+00 -7.2268804358291607e+00 -5.8452765721174984e+00 0 0 0
1004 1 2 -9.5879281787875625e-01 -7.2075531105556871e+00 -5.1343974954432232e+00 0 0 0
1051 1 2 -9.7343615611367551e-01 -8.1343431765616767e+00 -4.5815175412559199e+00 0 0 0
1050 1 2 -3.7001081727264282e-02 -8.1250782979527205e+00 -4.7328607118109609e+00 0 0 0
1039 1 2 -4.4085680820843826e-01 -6.9727251191168156e+00 -6.0880421188724219e+00 0 0 0
535 1 2 1.1214044299655830e+00 -7.6890925183878318e+00 -5.6456920133891000e+00 0 0 0
536 1 2 4.6696580639126489e-01 -7.4683101337351925e+00 -6.4966434337294041e+00 0 0 0
1003 1 2 -1.4723990685514803e+00 -7.0947495125038849e+00 -4.3219784365063498e+00 0 0 0
1040 1 2 1.4182326669537806e-01 -7.2982750750289478e+00 -5.3496738444693896e+00 0 0 0
664 1 2 -2.6602424604642105e-01 -7.0962978092946685e+00 -4.2091247087713093e+00 0 0 0
1042 1 2 8.9109053174083697e-01 -7.6472672190899971e+00 -4.3856687106326415e+00 0 0 0
431 1 2 1.1150315955775985e+00 -8.5507826728673688e+00 -4.9619802908725044e+00 0 0 0
534 1 2 1.5423295625455631e+00 -7.4474814106872689e+00 -6.4629336398783161e+00 0 0 0
430 1 2 1.8943904573868622e+00 -8.0600393192887374e+00 -4.7763317694515717e+00 0 0 0
531 1 2 2.9823462531986062e+00 -7.6996528157689994e+00 -4.4675809954503425e+00 0 0 0
533 1 2 2.2024922810595231e+00 -7.6116402874171447e+00 -5.8092423559432804e+00 0 0 0
429 1 2 1.8056024193892168e+00 -7.1366604175669988e+00 -5.0245469187741669e+00 0 0 0
532 1 2 3.0268996276726305e+00 -7.4355130993830159e+00 -5.3957729145325599e+00 0 0 0
530 1 2 2.7909924932202941e+00 -8.6131844711668091e+00 -4.5413511244769103e+00 0 0 0
697 1 2 4.1141881696658418e+00 -7.7503910374082148e+00 -4.1372565420803875e+00 0 0 0
743 1 2 4.2362809795965752e+00 -7.0261264673349553e+00 -5.3822043571371001e+00 0 0 0
282 1 2 5.4969078423413720e+00 -7.0400747816978342e+00 -4.1005884695852126e+00 0 0 0
965 1 2 -4.4523826660157111e+00 -5.2635716752467001e+00 -5.1355993629847463e+00 0 0 0
964 1 2 -4.6666920546811896e+00 -5.3616606419116302e+00 -6.0408627723606276e+00 0 0 0
1467 1 2 -4.4361524008817455e+00 -4.2115033205125707e+00 -5.6262323095005895e+00 0 0 0
966 1 2 -5.3262288544230794e+00 -5.7097550203478056e+00 -4.8485975892587323e+00 0 0 0
1468 1 2 -5.2638577477395048e+00 -4.5293419959807748e+00 -5.5175621775143071e+00 0 0 0
1469 1 2 -5.3796478372872363e+00 -4.5097158198928557e+00 -4.5942260557958186e+00 0 0 0
967 1 2 -5.8723999331435497e+00 -5.2921114055533209e+00 -4.1116643792423444e+00 0 0 0
1470 1 2 -6.2407483500440364e+00 -4.2580972219413189e+00 -4.3589099432931917e+00 0 0 0
1006 1 2 -1.9443458721059241e+00 -6.6398258905964980e+00 -6.5179942133664790e+00 0 0 0
963 1 2 -3.9079195856450806e+00 -5.9224734621835866e+00 -5.7676331131422964e+00 0 0 0
961 1 2 -3.6911766089480338e+00 -4.8632771366919068e+00 -6.1306026282856561e+00 0 0 0
1035 1 2 -2.7199726711958196e+00 -5.2917185682287746e+00 -6.2774631538483874e+00 0 0 0
1069 1 2 -3.4116873472609970e+00 -6.8633497527134946e+00 -5.5289052980693629e+00 0 0 0
1036 1 2 -1.9043774531807984e+00 -5.6269198620025431e+00 -5.9268565385035821e+00 0 0 0
1068 1 2 -2.8296976818503961e+00 -6.1702011489447219e+00 -5.6526459612241213e+00 0 0 0
1067 1 2 -2.3833551086634079e+00 -5.6413521651256380e+00 -4.9460364947812110e+00 0 0 0
962 1 2 -3.3007226638640899e+00 -5.2395766791612992e+00 -5.3720175027106993e+00 0 0 0
959 1 2 -2.2974842171259553e+00 -4.6799342621300086e+00 -5.4096564601240305e+00 0 0 0
1065 1 2 -3.7848671500581141e+00 -6.7013750642141927e+00 -4.5464895993420607e+00 0 0 0
1073 1 2 -2.5495335684151201e+00 -6.8207190351463289e+00 -4.7952563913482438e+00 0 0 0
1074 1 2 -2.0906256554134837e+00 -6.3150000936949233e+00 -4.1100996904800819e+00 0 0 0
1066 1 2 -3.2507824991573298e+00 -5.9558661125033252e+00 -4.6513821410489831e+00 0 0 0
950 1 2 -1.7515458408322031e+00 -5.0440836650782064e+00 -4.1193443469039774e+00 0 0 0
1462 1 2 -3.6901512778104797e+00 -4.9346679341197346e+00 -4.3998808658436497e+00 0 0 0
949 1 2 -2.5676892024112856e+00 -4.6209605774176685e+00 -4.3822079076438092e+00 0 0 0
1037 1 2 -1.7706219950310680e+00 -6.4162430741611818e+00 -5.3133593347586459e+00 0 0 0
1034 1 2 -2.0686003600720326e+00 -4.6411235281288059e+00 -6.4617032652461770e+00 0 0 0
960 1 2 -2.9937637481134365e+00 -4.3323818355805921e+00 -5.8719302892083185e+00 0 0 0
958 1 2 -1.5907187013171016e+00 -4.3191668592709007e+00 -4.9144827824979043e+00 0 0 0
1463 1 2 -3.6874530424368439e+00 -4.1410571410638424e+00 -4.9352328549611872e+00 0 0 0
1022 1 2 -2.2294061272487325e-01 -5.8894964620267416e+00 -6.5009863646489912e+00 0 0 0
956 1 2 -1.0742743745359189e+00 -5.2228853469922987e+00 -6.6216029798870135e+00 0 0 0
951 1 2 -1.3217024677483924e+00 -5.4491061184262781e+00 -4.9332862954461092e+00 0 0 0
1021 1 1 6.2992895683776839e-01 -5.5786464783513798e+00 -6.0647175450772073e+00 0 0 0
954 1 2 -5.4305487532740970e-01 -5.4092396386119006e+00 -5.6290473889424062e+00 0 0 0
1038 1 2 -1.0277002814747769e+00 -6.2884964319265331e+00 -5.8791094291151031e+00 0 0 0
953 1 2 -1.6748163800065280e-01 -6.2622228888235014e+00 -5.2739169167249633e+00 0 0 0
952 1 2 -9.0436014590167246e-01 -6.1894377604696276e+00 -4.6964472276439144e+00 0 0 0
1041 1 2 7.8090446772118771e-01 -6.7931633652677217e+00 -4.8771028404771926e+00 0 0 0
630 1 2 7.4419773186711680e-01 -5.7711555784270816e+00 -4.9727630714854634e+00 0 0 0
632 1 2 -6.3969327329624834e-02 -5.2405160517960159e+00 -4.6802771578034523e+00 0 0 0
631 1 2 4.8474819734848729e-01 -4.8816560644613158e+00 -5.3872137404773044e+00 0 0 0
955 1 2 -2.4519000540769154e-01 -4.8688968178118408e+00 -6.3331153356106329e+00 0 0 0
629 1 2 1.0838013900689136e+00 -5.0129828501814240e+00 -4.5168646739848102e+00 0 0 0
1019 1 2 1.0868108541652179e+00 -4.7339659751103147e+00 -6.5041322156769947e+00 0 0 0
957 1 2 -1.2843866344085522e+00 -4.7389873792280817e+00 -5.7923937180842318e+00 0 0 0
663 1 2 6.1341842479679221e-02 -6.2212737966986458e+00 -4.2571379738693027e+00 0 0 0
633 1 2 -7.7495217927118853e-01 -4.6266144340738000e+00 -4.4056073971141032e+00 0 0 0
537 1 2 6.0387966738061305e-01 -6.6179892970912704e+00 -6.0373282972367734e+00 0 0 0
803 1 2 2.4701175658975616e-01 -4.3297359011301602e+00 -4.3773571857426816e+00 0 0 0
426 1 2 1.0933781214346310e+00 -6.1823168446367189e+00 -4.1086530298715989e+00 0 0 0
796 1 2 -2.7585973054471541e-01 -4.1967523889385587e+00 -5.3652160766997721e+00 0 0 0
750 1 2 3.7280175527831596e+00 -4.2651148950829745e+00 -6.8525769074434200e+00 0 0 0
746 1 2 2.2500991985048535e+00 -6.5328041017170762e+00 -6.7966664521280329e+00 0 0 0
749 1 2 3.0891008123041432e+00 -4.8457925689279424e+00 -6.4919551159091018e+00 0 0 0
1020 1 1 1.4367868370922949e+00 -5.5959955416187439e+00 -6.6725543940578511e+00 0 0 0
538 1 2 1.3765930714453529e+00 -6.2957436066302064e+00 -5.7059740384121262e+00 0 0 0
745 1 2 3.0635397813365022e+00 -6.9050956156030594e+00 -6.3474929468186474e+00 0 0 0
741 1 2 3.3638220546544155e+00 -5.7405397241348606e+00 -6.0067361267422195e+00 0 0 0
539 1 2 2.3356558042984576e+00 -6.4254361822764583e+00 -5.7058773832393008e+00 0 0 0
540 1 2 2.3366585111326250e+00 -5.5697502046732978e+00 -6.0096536825315221e+00 0 0 0
427 1 2 1.7448064971026951e+00 -6.0198555018826516e+00 -4.8310990576436605e+00 0 0 0
428 1 2 2.5647367857112786e+00 -6.6500516398798943e+00 -4.6819507932324571e+00 0 0 0
699 1 2 3.5160572213427357e+00 -6.7965778336214351e+00 -4.3301581274586578e+00 0 0 0
737 1 2 2.7456370551558007e+00 -5.6297430027657267e+00 -5.0613645843366637e+00 0 0 0
738 1 2 3.6104813412917993e+00 -5.2371863693587208e+00 -5.0773328709054590e+00 0 0 0
700 1 2 3.5772203815793202e+00 -5.9175411999040923e+00 -4.1880548080902207e+00 0 0 0
736 1 2 2.1837049292351147e+00 -4.9437398111174078e+00 -4.7347678582282198e+00 0 0 0
541 1 2 1.4855354817269371e+00 -5.2859324022074947e+00 -5.6093011915913831e+00 0 0 0
734 1 2 2.1238138221473597e+00 -4.5661463315018702e+00 -6.2533689938301720e+00 0 0 0
735 1 2 2.6294918326829859e+00 -4.5818657958353128e+00 -5.4433473693437122e+00 0 0 0
710 1 2 3.0538209433881427e+00 -4.6458781473347628e+00 -4.2407671194073808e+00 0 0 0
742 1 2 3.5452354934924166e+00 -6.3640416864990073e+00 -5.2878438152592144e+00 0 0 0
542 1 2 1.3437256533823143e+00 -4.3103424413684150e+00 -5.4127417046749660e+00 0 0 0
758 1 2 4.0729183721248772e+00 -5.4603137938405037e+00 -6.8221043990547825e+00 0 0 0
757 1 2 4.6577900146865341e+00 -4.7563197081646056e+00 -6.5758772471929241e+00 0 0 0
756 1 2 5.5236351043401992e+00 -4.4424480709226213e+00 -6.8004563400716842e+00 0 0 0
739 1 2 3.9287703675340113e+00 -4.7923290109856067e+00 -5.8340247297186973e+00 0 0 0
744 1 2 3.9376954860501487e+00 -6.6294443259094482e+00 -6.1723763245999059e+00 0 0 0
698 1 2 4.3973808405172710e+00 -6.8486299448150660e+00 -4.3242674235642218e+00 0 0 0
709 1 2 4.0027433579986624e+00 -4.8709837055492473e+00 -4.2032628398672873e+00 0 0 0
705 1 2 4.5454870981027993e+00 -5.7844122449539759e+00 -4.6623452180005573e+00 0 0 0
706 1 2 5.4427125877349516e+00 -5.9248643053513952e+00 -4.7975286728535487e+00 0 0 0
740 1 2 4.3122480020401577e+00 -5.6410706762127152e+00 -5.7807919597304860e+00 0 0 0
755 1 2 5.8283247715076421e+00 -4.8327076607472907e+00 -5.9952758651489493e+00 0 0 0
707 1 2 5.3104714882419488e+00 -5.0199595266178036e+00 -5.1472480111708716e+00 0 0 0
295 1 2 6.0501329912202317e+00 -5.0498800616837842e+00 -4.1600692588837038e+00 0 0 0
708 1 2 4.4792861747384052e+00 -4.5183904248280529e+00 -4.9069942798374253e+00 0 0 0