LAMMPS data file via write_data, version 16 Mar 2018, timestep = 0

4000 atoms
2 atom types
4013 bonds
2 bond types

-9.6801624680898595e+00 9.6129207797055578e+00 xlo xhi
-9.5524219265507249e+00 1.0357960160868686e+01 ylo yhi
-9.6110372466366272e+00 9.2584938613143208e+00 zlo zhi

Masses

1 1
2 1

Atoms # bond

659 1 2 -7.3357985302448991e-01 -7.0014264043390604e+00 -7.1322234763494921e+00 0 0 0
650 1 2 1.5963583276689262e+00 -6.8692968820133657e+00 -7.4014474810902335e+00 0 0 0
550 1 2 -4.6056994303694010e+00 -4.8018344532365500e+00 -7.1463859496885105e+00 0 0 0
549 1 2 -3.9874568348200334e+00 -5.4772223348893290e+00 -7.5263550433293878e+00 0 0 0
977 1 2 -3.4600317970253616e+00 -6.2702716219987424e+00 -7.1263576524629659e+00 0 0 0
545 1 2 -2.9322255192899709e+00 -5.2653549901354495e+00 -7.6917696469990444e+00 0 0 0
547 1 2 -3.0750499098569986e+00 -4.5400662605447657e+00 -6.9592158603435621e+00 0 0 0
546 1 2 -3.5928035920808687e+00 -4.5224363170824509e+00 -7.7535155836531269e+00 0 0 0
544 1 2 -2.2444469203608577e+00 -4.7159869155154315e+00 -8.0224430006360308e+00 0 0 0
979 1 2 -2.1515810659571102e+00 -6.3177043375612429e+00 -7.3161847704726073e+00 0 0 0
543 1 2 -2.0629797493955166e+00 -4.9781881293485899e+00 -7.0961191669001815e+00 0 0 0
661 1 2 -1.7485132264658754e+00 -5.6421168923106402e+00 -8.0503457238898299e+00 0 0 0
658 1 2 -1.3094874466593931e-01 -6.6970383748962394e+00 -7.8771577548000611e+00 0 0 0
664 1 2 -1.2978347207441940e+00 -4.7262286458136815e+00 -8.4315704910254965e+00 0 0 0
660 1 2 -1.1209766481923400e+00 -6.2595856245872836e+00 -7.6543733069224160e+00 0 0 0
662 1 2 -1.0427080998655249e+00 -5.2830962633140368e+00 -7.5047890608147707e+00 0 0 0
656 1 2 -6.2979263340424008e-01 -5.5104306253628588e+00 -8.4193485144878917e+00 0 0 0
657 1 2 -1.5727089586229601e-01 -5.7891434578828527e+00 -7.6155626368309752e+00 0 0 0
673 1 2 -7.5039697682806883e-02 -4.7694128225243713e+00 -7.1972309665515235e+00 0 0 0
655 1 2 3.0703634959658299e-01 -5.6228760051092106e+00 -8.5764764056044456e+00 0 0 0
663 1 2 -1.1445535873529857e+00 -4.2855792338431229e+00 -7.5061999478603028e+00 0 0 0
672 1 2 -1.8826465150067292e-01 -4.5446240593314942e+00 -8.1392604386692593e+00 0 0 0
665 1 2 -5.9213028356809927e-01 -4.4534509559644784e+00 -9.0273470318564879e+00 0 0 0
671 1 2 5.6305217454450140e-01 -4.5538784698409067e+00 -8.7331984313027924e+00 0 0 0
654 1 2 1.2062032228881061e+00 -5.6324172638584322e+00 -8.3701004821950828e+00 0 0 0
674 1 2 6.6247505665706852e-01 -4.9304344330179921e+00 -7.7830454454163140e+00 0 0 0
675 1 2 5.9912004277786868e-01 -4.0121194664114066e+00 -7.6452198574577492e+00 0 0 0
653 1 2 8.5114014606774091e-01 -6.1089950663574601e+00 -7.5940102511288332e+00 0 0 0
670 1 2 1.2737849300845168e+00 -4.0468945143850918e+00 -9.1416322115085773e+00 0 0 0
666 1 2 1.3079695128569474e-01 -3.9594546557892425e+00 -9.5148908158915972e+00 0 0 0
955 1 2 1.0159386023618837e+00 -4.6861958518844453e+00 -6.9176360594696806e+00 0 0 0
637 1 2 1.6009624960590654e+00 -4.5950777521705399e+00 -8.1715116802349801e+00 0 0 0
636 1 2 1.7357192638966976e+00 -5.2311846898600791e+00 -7.4901434572395846e+00 0 0 0
635 1 2 1.9239160218565297e+00 -4.2810823765877126e+00 -7.2929922801225171e+00 0 0 0
649 1 2 2.2371329284767878e+00 -6.1533543753335724e+00 -7.3345063420095471e+00 0 0 0
638 1 2 2.2904388736747849e+00 -3.9083311937512821e+00 -8.2395917175477660e+00 0 0 0
633 1 2 2.8382314594135285e+00 -5.0820013236472725e+00 -7.8271209290267958e+00 0 0 0
632 1 2 3.5652478987977925e+00 -4.5094171542071413e+00 -7.5007086255996178e+00 0 0 0
631 1 2 3.9423390961221916e+00 -5.3569951386230823e+00 -7.1874934885997792e+00 0 0 0
648 1 2 3.0758647319677204e+00 -5.8417689637423695e+00 -6.9615184791087961e+00 0 0 0
706 1 2 -4.1934883256823898e+00 -3.7830049432820574e+00 -6.9700061987490862e+00 0 0 0
715 1 2 -5.6312373162348832e+00 -1.6365428761533218e+00 -7.1813016825543103e+00 0 0 0
714 1 2 -5.4744500179427771e+00 -2.5465208653777891e+00 -7.1978444145642477e+00 0 0 0
752 1 2 -4.6332300220703528e+00 -1.1052841399181741e+00 -6.9666952017195731e+00 0 0 0
697 1 2 -4.4514721163515869e+00 -3.8066117918859423e+00 -8.1005900146130685e+00 0 0 0
698 1 2 -4.5711310067756052e+00 -2.9204012067172642e+00 -7.7404679756454229e+00 0 0 0
751 1 2 -4.5210160459383388e+00 -1.8581287470636882e+00 -7.5838690061458358e+00 0 0 0
696 1 2 -3.5618776675255823e+00 -3.4493765787256492e+00 -8.1860571352502927e+00 0 0 0
695 1 2 -2.7723015391216657e+00 -3.6867055689650323e+00 -8.7182084635907007e+00 0 0 0
750 1 2 -3.8605003831131830e+00 -1.2738055441437914e+00 -7.8955360900145655e+00 0 0 0
699 1 2 -3.7669534274916678e+00 -2.8026866510828681e+00 -7.2953901305774060e+00 0 0 0
3999 1 2 -2.7060455523724785e+00 -3.8243535508804838e+00 -7.5663502669311553e+00 0 0 0
690 1 2 -2.7072508190120095e+00 -2.8086250014745238e+00 -8.0036990570317936e+00 0 0 0
691 1 2 -2.2039356222055737e+00 -2.8370728534199556e+00 -7.1847713078648185e+00 0 0 0
749 1 2 -3.6572783541703369e+00 -2.2020598584463498e+00 -8.1672995909926449e+00 0 0 0
748 1 2 -2.9422315594158412e+00 -1.7442588399326451e+00 -7.6652101426800066e+00 0 0 0
756 1 2 -3.7041317851035656e+00 -1.8028491381206635e+00 -6.9608765856648382e+00 0 0 0
689 1 2 -2.5394409304343610e+00 -2.1248393437982029e+00 -8.6096313684573396e+00 0 0 0
694 1 2 -1.8575218902137369e+00 -3.8548313325340833e+00 -8.9913616089466117e+00 0 0 0
688 1 2 -1.8959957377749452e+00 -1.4649697251259095e+00 -8.2373443316198003e+00 0 0 0
426 1 2 -2.0259445546425967e+00 -1.7762859994566620e+00 -7.2650377991747854e+00 0 0 0
693 1 2 -1.8525539303540568e+00 -2.8940618333672452e+00 -8.8312213270949584e+00 0 0 0
3998 1 2 -1.8520977140144566e+00 -3.7386897748943966e+00 -7.9510020156336223e+00 0 0 0
692 1 2 -1.6313165198514616e+00 -2.5784675157615466e+00 -7.9537678273604060e+00 0 0 0
687 1 2 -2.1327958419452635e+00 -1.2561885788133245e+00 -9.1020170069260171e+00 0 0 0
747 1 2 -3.0319977059726448e+00 -1.1380823088009744e+00 -8.4756389869627000e+00 0 0 0
676 1 2 1.1678504402509571e+00 -3.3698660276682304e+00 -7.9696110220392864e+00 0 0 0
3996 1 2 -8.8656516077519087e-01 -3.4245102422276421e+00 -9.3567133344094202e+00 0 0 0
3997 1 2 -1.0322613431605809e+00 -3.5901975195105158e+00 -8.4153021918278395e+00 0 0 0
429 1 2 -1.2105478963249461e+00 -3.2082805028423769e+00 -7.2494404714053218e+00 0 0 0
3995 1 2 -5.4781930519099675e-01 -2.7334075455576068e+00 -8.8506973186527418e+00 0 0 0
683 1 2 -4.8236491906068235e-01 -2.5449619692714101e+00 -7.7576936659658289e+00 0 0 0
783 1 2 -2.8543651774633677e-01 -3.6302983617331384e+00 -7.3920236922108149e+00 0 0 0
667 1 2 9.0254122898045366e-02 -3.5759083580546469e+00 -8.6087416144025379e+00 0 0 0
685 1 2 -1.1611273086543679e+00 -1.9951581254172750e+00 -8.6885301225862985e+00 0 0 0
3991 1 2 -1.7671971908890963e-01 -1.8989329321293527e+00 -7.0667512752743216e+00 0 0 0
684 1 2 -8.9136715827775992e-01 -1.6719651244196265e+00 -7.8478938018352915e+00 0 0 0
3994 1 2 -3.5522742092468401e-01 -2.2549634714120184e+00 -9.6091492778076208e+00 0 0 0
3993 1 2 -1.2171019683830499e-01 -1.7996200580415869e+00 -8.8084047644625620e+00 0 0 0
3992 1 2 1.8640755058287642e-01 -1.5067340396897593e+00 -7.9092532766126649e+00 0 0 0
682 1 2 3.4901797110015675e-01 -2.5976616768276179e+00 -8.2574064216550109e+00 0 0 0
680 1 2 6.0622444667981268e-01 -2.8696388144192988e+00 -7.1842966294833843e+00 0 0 0
681 1 2 1.0933178380499509e+00 -2.3273672333136695e+00 -7.7397064384172349e+00 0 0 0
668 1 2 4.1042865144264662e-01 -2.8702872699824269e+00 -9.2982554271191553e+00 0 0 0
3742 1 2 9.5321895708316773e-01 -1.7924374871221307e+00 -8.6815350293571996e+00 0 0 0
686 1 2 -1.1820692859963284e+00 -1.1130480080135543e+00 -9.0757379498139965e+00 0 0 0
639 1 2 2.8418503631729863e+00 -3.6780646429357242e+00 -7.5488073647388054e+00 0 0 0
669 1 2 1.3736475681034928e+00 -3.0800058044483549e+00 -8.9960061783768239e+00 0 0 0
3743 1 2 1.8172655893742742e+00 -2.1736578888006779e+00 -8.6273280548884710e+00 0 0 0
677 1 2 1.8378748484083918e+00 -3.1344910889280153e+00 -7.3588842415536240e+00 0 0 0
3987 1 2 2.0963962669275467e+00 -2.0575801060979066e+00 -7.5413873868636196e+00 0 0 0
3744 1 2 2.3200663019692231e+00 -2.8367793785521656e+00 -8.1661832734282527e+00 0 0 0
641 1 2 2.9028221331738653e+00 -2.7343670444092791e+00 -7.2133079334635362e+00 0 0 0
3986 1 2 1.4331112980602743e+00 -1.3873188805871288e+00 -7.7660157512556784e+00 0 0 0
3985 1 2 2.2197592339380652e+00 -1.2119034157338564e+00 -8.3083053919086183e+00 0 0 0
1378 1 2 3.2655136897397328e+00 -1.5769634454625763e+00 -7.1136157651412253e+00 0 0 0
640 1 2 3.5799333903203241e+00 -3.0671077954580332e+00 -7.8053099762887790e+00 0 0 0
3745 1 2 2.8854823176718849e+00 -2.0494031659002059e+00 -8.1473686838239168e+00 0 0 0
3746 1 2 3.7932346737923610e+00 -2.0409708156563755e+00 -7.9427770133753928e+00 0 0 0
1168 1 2 4.0242765441261863e+00 -3.5860832311251296e+00 -7.0480777028495751e+00 0 0 0
1166 1 2 3.9320033261944678e+00 -2.3729017903185206e+00 -6.9648461823126242e+00 0 0 0
1165 1 1 4.7494068019314311e+00 -2.3019236517253203e+00 -7.3563357022155467e+00 0 0 0
3747 1 2 4.2070220856315705e+00 -1.2820123297108590e+00 -7.5756996799560303e+00 0 0 0
716 1 2 -5.3867491852943283e+00 -9.2257123510049233e-01 -7.6981579150326249e+00 0 0 0
717 1 2 -5.9758757054312603e+00 -1.9739142282880343e-01 -7.4406206095024299e+00 0 0 0
718 1 2 -6.3988103000809771e+00 -1.0192959490562383e+00 -7.1738013078943723e+00 0 0 0
739 1 2 -5.0842232645746854e+00 5.8047587885948126e-01 -7.5977548502884735e+00 0 0 0
740 1 2 -5.4567984458936500e+00 1.4291430858799545e+00 -7.7821970833543572e+00 0 0 0
753 1 2 -4.3981415571084526e+00 -3.9212769626198962e-01 -7.5915570484502837e+00 0 0 0
3719 1 2 -4.2310917409321922e+00 1.7723313196754229e+00 -7.1252635061416489e+00 0 0 0
755 1 2 -3.4762592532650092e+00 -9.0023446918665229e-01 -7.0050597154138838e+00 0 0 0
3784 1 2 -2.9568173553844908e+00 7.1652415897051303e-01 -7.1565411575526925e+00 0 0 0
745 1 2 -3.2374538717928965e+00 -1.2150874885987012e-01 -7.6629888229010970e+00 0 0 0
744 1 2 -3.2782914141047863e+00 6.8603721386568706e-01 -8.1672482815950112e+00 0 0 0
746 1 2 -2.5919484034040776e+00 -7.4743154592440308e-01 -7.7187004708420783e+00 0 0 0
3782 1 2 -2.3599605580983276e+00 1.0898810572588746e+00 -8.2785687017022767e+00 0 0 0
742 1 2 -4.1512229307543116e+00 1.5297157547152807e+00 -8.1268911620159212e+00 0 0 0
3718 1 2 -3.3869871612471365e+00 1.6986279059551439e+00 -7.4353946688999386e+00 0 0 0
743 1 2 -4.0289811369644495e+00 7.9452043516034543e-01 -7.6011708836010285e+00 0 0 0
3729 1 2 -2.2300871657948735e+00 1.4445903701252691e+00 -7.2590943754528086e+00 0 0 0
3783 1 2 -2.2552063222304715e+00 3.5509115741649183e-01 -7.6828549931251269e+00 0 0 0
3780 1 2 -2.3910673779349896e+00 -1.9280020052988608e-01 -8.6078170739118232e+00 0 0 0
3778 1 2 -1.6669484752564869e+00 -5.9922350257432178e-01 -7.1814980421636205e+00 0 0 0
3779 1 2 -1.6036085619843494e+00 -5.5586755180862446e-01 -8.1767967708471385e+00 0 0 0
3781 1 2 -1.7127460113345234e+00 4.5161056601593497e-01 -8.5132098006137706e+00 0 0 0
3741 1 2 1.0635356592822416e+00 -8.7502435764146713e-01 -8.6254666241892046e+00 0 0 0
3731 1 2 -1.0430809013437083e+00 2.3458777669381653e-01 -7.5633156465005866e+00 0 0 0
3739 1 2 -4.8170133637780327e-01 -6.2187154770874309e-01 -8.1299055847366066e+00 0 0 0
3738 1 2 -5.6955792232152036e-01 -8.7424494249608053e-01 -7.2283031400033391e+00 0 0 0
3151 1 2 -7.2220921855644826e-01 1.0383765812810865e-01 -8.7671574691840117e+00 0 0 0
3733 1 2 4.1708575962561894e-03 1.8071867198350536e-01 -7.1301115107164135e+00 0 0 0
3152 1 2 1.5235269704012613e-01 2.0314886474093957e-01 -8.2792927937400087e+00 0 0 0
3150 1 2 -7.0999772020296181e-01 1.0002531205609071e+00 -8.4434713425755952e+00 0 0 0
3730 1 2 -1.3687522635689406e+00 1.1420047925538985e+00 -7.5578870092000185e+00 0 0 0
3149 1 2 -1.4881113447793806e-01 1.0735201897556610e+00 -7.7354606801170762e+00 0 0 0
3740 1 2 1.2043122701326023e-01 -7.1278378986820878e-01 -8.8045446608725175e+00 0 0 0
3734 1 2 5.2920835329449223e-01 -5.0139831596088735e-01 -7.5268306349941012e+00 0 0 0
3153 1 2 1.0772059058923649e+00 3.4031413609286792e-01 -8.4958632994611349e+00 0 0 0
3368 1 2 9.1156954573571480e-01 5.5683418185180700e-01 -7.3955387506695711e+00 0 0 0
3367 1 2 9.0401634141797493e-01 1.3553126793860224e+00 -7.9108355763826594e+00 0 0 0
3148 1 2 -5.0681118273553516e-01 1.7664119486912528e+00 -7.2298357338166594e+00 0 0 0
3984 1 2 2.2576670851542553e+00 -2.7343042505968823e-01 -8.4826523418640019e+00 0 0 0
3982 1 2 2.2443767575837481e+00 -7.7773384576617044e-01 -7.2464065046704320e+00 0 0 0
3983 1 2 1.5966959544406816e+00 -3.3754136497726528e-01 -7.7899307368237567e+00 0 0 0
3753 1 2 3.1713134245050347e+00 -8.5250809779788672e-01 -7.8728840910865490e+00 0 0 0
3754 1 2 3.5043516253999458e+00 -4.6675446445151225e-01 -7.0756331356039102e+00 0 0 0
3752 1 2 3.3902621562748738e+00 3.3951741485769979e-03 -8.1200831426773288e+00 0 0 0
3366 1 2 1.6283376835970294e+00 1.6579522778095830e+00 -7.4241913774090520e+00 0 0 0
3154 1 2 1.8096556076719112e+00 7.1581366068784402e-01 -8.0285544753257003e+00 0 0 0
3155 1 1 2.5423653964738007e+00 1.2653651175349920e+00 -7.6588386912315096e+00 0 0 0
3751 1 1 2.7548924827813752e+00 2.7288010638792881e-01 -7.4794384092351232e+00 0 0 0
3378 1 1 3.8284382006093631e+00 1.7755269185029350e+00 -7.6620698903754167e+00 0 0 0
3750 1 1 3.4717598577716582e+00 6.2763570831283644e-01 -7.1502094232006179e+00 0 0 0
3748 1 1 4.3427572395757297e+00 -3.6832395871389145e-01 -7.7098353438496101e+00 0 0 0
3749 1 1 4.2985847842209397e+00 5.8648813868406846e-01 -7.7298990079574139e+00 0 0 0
2369 1 1 4.8522322856028870e+00 1.7873340526961317e+00 -7.1564358360043121e+00 0 0 0
1371 1 1 5.2945299269796191e+00 6.6187839542042182e-01 -6.9775223902288408e+00 0 0 0
741 1 2 -4.8712539563053729e+00 2.1114821042316563e+00 -7.8917747003563132e+00 0 0 0
736 1 2 -5.5684171292637901e+00 2.6792933544824047e+00 -7.3756352007156636e+00 0 0 0
3070 1 2 -4.4437285055585916e+00 3.1617337816991982e+00 -7.6182937874173904e+00 0 0 0
3071 1 2 -4.5231430427550423e+00 3.9936300494162884e+00 -7.1106908600380931e+00 0 0 0
734 1 2 -6.3971095856817124e+00 1.9386186008925335e+00 -7.0511179686301446e+00 0 0 0
3717 1 2 -3.1569120795459527e+00 1.8466511753279822e+00 -8.3284046290435185e+00 0 0 0
3716 1 2 -3.4558551031872051e+00 2.6617872192623278e+00 -7.8995095952697536e+00 0 0 0
3715 1 2 -2.6988213641244494e+00 3.2593747250571079e+00 -7.8868625619794086e+00 0 0 0
3728 1 2 -2.6024840800640008e+00 2.4204878055076602e+00 -7.3080264635483028e+00 0 0 0
3714 1 2 -3.4859018799787886e+00 3.7866377683219414e+00 -7.5736472583779513e+00 0 0 0
3726 1 2 -2.2574048892434195e+00 3.7155824487192248e+00 -6.9890697746477120e+00 0 0 0
3144 1 2 -1.8472782188297192e+00 2.2323460084392002e+00 -7.9907846523636206e+00 0 0 0
3145 1 2 -1.4510313126119567e+00 2.2002242639019505e+00 -7.1341920249778035e+00 0 0 0
3143 1 2 -9.2177829139284928e-01 2.1079452617153320e+00 -8.1641137631504979e+00 0 0 0
3142 1 2 5.1883524170465080e-02 1.9790030434986550e+00 -8.3160515454987074e+00 0 0 0
3147 1 2 -4.5339562336265227e-01 2.7086482624702413e+00 -7.1223503608514198e+00 0 0 0
3793 1 2 4.9762632174367499e-01 2.1615568917259140e+00 -7.0381881420490435e+00 0 0 0
3146 1 2 -1.2732291171713916e+00 3.0680318220858118e+00 -7.5353830900721963e+00 0 0 0
3140 1 2 -4.6632757959427285e-01 3.6892581362254209e+00 -7.7736930331394900e+00 0 0 0
3141 1 2 -9.6966550906481416e-02 2.8583121841582604e+00 -8.1161819535120365e+00 0 0 0
3161 1 2 3.4206480785161758e-01 3.3678260408131759e+00 -7.1386008131677308e+00 0 0 0
3361 1 2 6.2141130112848253e-01 4.4231176080930936e+00 -7.5682029371992963e+00 0 0 0
3159 1 2 1.0048492522958898e+00 2.5136945537338660e+00 -8.0819296042458237e+00 0 0 0
3160 1 2 7.4331014596570288e-01 3.4480028494534105e+00 -8.0473070344785338e+00 0 0 0
3139 1 2 -1.1736565943361006e+00 4.1632038660547721e+00 -7.2253227118787020e+00 0 0 0
3156 1 1 3.0313241990162405e+00 1.8502541902764125e+00 -8.3054519557622104e+00 0 0 0
3158 1 2 1.9292052541865112e+00 2.2599371714243413e+00 -8.2375889880366824e+00 0 0 0
3157 1 1 2.5868003568818652e+00 2.2307121272447459e+00 -7.5504145192793235e+00 0 0 0
3365 1 1 1.5152663312883012e+00 2.5563646332637786e+00 -7.1694879730617327e+00 0 0 0
3362 1 1 1.5682540852952189e+00 4.4069394577870273e+00 -7.5684363266438828e+00 0 0 0
3363 1 1 1.3827248354050845e+00 3.6513253282296079e+00 -7.0281736519296123e+00 0 0 0
3389 1 1 2.6574820551876313e+00 3.1674134111369825e+00 -8.2387824298738188e+00 0 0 0
3390 1 1 1.8118162269122713e+00 3.3590442831416039e+00 -7.9550187273715807e+00 0 0 0
3391 1 1 2.3550587389338316e+00 3.2257173157055701e+00 -7.1447319964323608e+00 0 0 0
3388 1 1 2.7817439551143397e+00 4.0635671729285834e+00 -7.7407241694088125e+00 0 0 0
3387 1 1 3.4889556091213358e+00 3.9209428844535261e+00 -6.9462867410338323e+00 0 0 0
3380 1 1 3.4128346182073979e+00 2.8475187832012852e+00 -7.0831719696694844e+00 0 0 0
3379 1 1 3.5470775318381071e+00 2.7090067082987472e+00 -8.0170760174894156e+00 0 0 0
3386 1 1 4.2863403630665209e+00 3.5511892567294208e+00 -7.4729335581876795e+00 0 0 0
3385 1 1 4.8049533831879572e+00 2.8432730970000084e+00 -7.1228234432211144e+00 0 0 0
3163 1 2 -3.8079435695869979e-01 4.9722849557053168e+00 -7.3691234662772365e+00 0 0 0
3136 1 1 -1.3415404241008999e+00 5.4100682346203062e+00 -7.0064514610255415e+00 0 0 0
3164 1 2 1.6872080528249458e-01 5.7925135882985330e+00 -7.5111975697138389e+00 0 0 0
3165 1 2 5.6113577029105732e-01 6.5494721493170420e+00 -7.0056985537893093e+00 0 0 0
3360 1 1 8.4920513652569851e-01 5.1842541873717858e+00 -7.0358240351293286e+00 0 0 0
3409 1 1 2.2691100860705453e+00 5.2326270714223186e+00 -7.0594188623538843e+00 0 0 0
3408 1 1 2.8738260285615636e+00 6.0026416028779597e+00 -7.2490026214061567e+00 0 0 0
3407 1 1 3.2757352749507507e+00 5.1373787551142787e+00 -7.1346852717329226e+00 0 0 0
972 1 2 -4.4875735151001690e+00 -7.5422624896675625e+00 -4.8950735751093610e+00 0 0 0
980 1 2 -1.6672226758344517e+00 -6.8612648702660826e+00 -6.6390896344263091e+00 0 0 0
976 1 2 -2.9037344213328335e+00 -6.7287666493923464e+00 -6.5385992353030344e+00 0 0 0
973 1 2 -3.7101738295963318e+00 -7.0142851213937671e+00 -4.8724383698048825e+00 0 0 0
971 1 2 -3.9859396519553232e+00 -8.2579279478145580e+00 -4.3124917492042538e+00 0 0 0
974 1 2 -3.9919664421336458e+00 -6.9683546847415494e+00 -5.7881163025607218e+00 0 0 0
970 1 2 -3.1343553922673646e+00 -7.8808296114665239e+00 -4.5466215974225159e+00 0 0 0
298 1 2 -3.3762265144534949e+00 -8.8483637004521363e+00 -5.0206402950909439e+00 0 0 0
969 1 2 -3.6526892938920996e+00 -7.9253161177761262e+00 -5.4190743017609222e+00 0 0 0
297 1 2 -2.8789409524443506e+00 -8.5686117165707998e+00 -5.7609546858588754e+00 0 0 0
1067 1 2 -2.1995419994140613e+00 -7.6373109564979025e+00 -4.3155296511653987e+00 0 0 0
967 1 2 -2.2163665957535117e+00 -7.7186084412392244e+00 -5.8512495290290065e+00 0 0 0
968 1 2 -2.9527219737983135e+00 -7.2924424787380744e+00 -5.5627437609147243e+00 0 0 0
296 1 2 -2.3912723331591534e+00 -8.6274488446552109e+00 -4.9438007167878846e+00 0 0 0
299 1 2 -2.9358468516302465e+00 -9.5504275314842584e+00 -4.5571410773219059e+00 0 0 0
294 1 2 -1.6258467895995257e+00 -8.7223353670773474e+00 -5.7580041909928150e+00 0 0 0
295 1 2 -1.5905497006821574e+00 -8.1476310705300055e+00 -5.0169945648720580e+00 0 0 0
966 1 2 -1.8010466049457470e+00 -7.1030621145900392e+00 -5.2938968402390207e+00 0 0 0
651 1 2 9.0194529024584802e-01 -7.3316856740136025e+00 -6.8814729644876351e+00 0 0 0
293 1 1 -7.1355822827268278e-01 -8.4143812617498597e+00 -5.7368631090766566e+00 0 0 0
292 1 1 -1.1858915398531280e+00 -7.7124724047361735e+00 -6.1472337499968939e+00 0 0 0
291 1 2 -8.0255127061484144e-01 -7.3897247287169225e+00 -5.3171655429698852e+00 0 0 0
961 1 2 -5.3102562594772766e-03 -7.6012829574944440e+00 -6.0572231514916339e+00 0 0 0
290 1 2 -1.2318582450384155e+00 -7.2397056321108151e+00 -4.4827187872416463e+00 0 0 0
286 1 2 -2.5196315337789956e-02 -8.9412269550737928e+00 -4.7819504313137378e+00 0 0 0
285 1 2 3.8062608320690705e-01 -8.2041546605559841e+00 -5.2336074182496555e+00 0 0 0
280 1 2 4.2748878644311383e-01 -7.4826691620224830e+00 -4.2991690417756443e+00 0 0 0
960 1 2 2.1652358877452144e-01 -7.0456388823579941e+00 -5.3092321060333960e+00 0 0 0
1037 1 2 -3.5176992625377146e-01 -6.7975647076641126e+00 -4.4179590998458069e+00 0 0 0
287 1 2 -5.2498314940885749e-01 -8.1153914612460341e+00 -4.5729561723486825e+00 0 0 0
959 1 2 8.5252927820934754e-01 -6.7607037018131848e+00 -6.0004850574846182e+00 0 0 0
284 1 2 1.1985389774725608e+00 -7.6276214747881363e+00 -5.4357264998634811e+00 0 0 0
283 1 2 1.2307947268382120e+00 -6.8760057767458713e+00 -4.8270130698171867e+00 0 0 0
615 1 2 1.0814936232145613e+00 -8.4270557317102934e+00 -4.3621064556677460e+00 0 0 0
962 1 2 -3.8387137955166778e-01 -6.7776758827121890e+00 -6.1507280612099180e+00 0 0 0
1064 1 2 -1.1842428391751816e+00 -9.0975992767064255e+00 -4.5534624395562364e+00 0 0 0
1111 1 2 2.2412885554424729e+00 -7.2352090695722620e+00 -5.3262510382449637e+00 0 0 0
1112 1 2 1.9252003159332307e+00 -7.5180046409436780e+00 -6.2348679416829436e+00 0 0 0
616 1 2 1.7722096190438359e+00 -8.4864383729540371e+00 -4.9146668318206439e+00 0 0 0
617 1 2 1.8845157281880862e+00 -7.7096617160052459e+00 -4.3316554933662408e+00 0 0 0
1110 1 2 2.9087446552410934e+00 -7.9267925423704053e+00 -5.1888220218648051e+00 0 0 0
1109 1 2 2.9360202783043361e+00 -7.2198694774350471e+00 -4.4946775047554715e+00 0 0 0
1114 1 2 3.2378503672476349e+00 -7.1170010315817898e+00 -5.8782910392950765e+00 0 0 0
1117 1 2 3.9749222128031523e+00 -7.6032084331199652e+00 -4.4317542256335294e+00 0 0 0
1113 1 2 2.5317292661111770e+00 -6.7431144651390422e+00 -6.3916308305609162e+00 0 0 0
1116 1 2 3.8711129770464083e+00 -6.8338185905628386e+00 -5.0102415092351462e+00 0 0 0
1115 1 2 3.9728159810452066e+00 -7.6403732061917804e+00 -5.5865053871244257e+00 0 0 0
551 1 2 -5.4321017816427268e+00 -5.1920401880315934e+00 -6.6642269130480072e+00 0 0 0
552 1 2 -6.2056870603278345e+00 -5.1151060518172704e+00 -6.0269091826932568e+00 0 0 0
710 1 2 -5.1587668377746656e+00 -4.1736330600122411e+00 -6.2668047492844359e+00 0 0 0
554 1 2 -5.3590252348770235e+00 -6.3073541959673030e+00 -4.9540311522058005e+00 0 0 0
555 1 2 -6.2819706164330746e+00 -6.0592968386833777e+00 -4.9535382716086946e+00 0 0 0
556 1 2 -5.7934140007528985e+00 -5.1898343530429152e+00 -4.7206334713273916e+00 0 0 0
553 1 2 -5.4945856811140326e+00 -5.6194439833728040e+00 -5.6738101021980452e+00 0 0 0
709 1 2 -5.2885323236696005e+00 -4.5662402476529547e+00 -5.4532197327872813e+00 0 0 0
536 1 2 -4.5803939900100561e+00 -5.3822812748363882e+00 -4.9703696344886286e+00 0 0 0
535 1 2 -4.9448359503297636e+00 -4.6839734960615838e+00 -4.4848594164107327e+00 0 0 0
538 1 2 -4.5679926086849241e+00 -5.9557653791281373e+00 -6.5223479608459485e+00 0 0 0
848 1 2 -4.3936213018081887e+00 -6.3857991706085082e+00 -4.4183704738399028e+00 0 0 0
537 1 2 -4.5523805702482152e+00 -6.0972608358463516e+00 -5.5992036471569211e+00 0 0 0
539 1 2 -4.5756107718617134e+00 -5.1234517224046323e+00 -6.0819621412366240e+00 0 0 0
708 1 2 -4.3290856370464832e+00 -4.2553626291859636e+00 -5.4232569757459341e+00 0 0 0
366 1 2 -6.3992261407047737e+00 -4.2589951643920827e+00 -4.6016056229507276e+00 0 0 0
373 1 2 -6.3459197954310795e+00 -3.9483935685825298e+00 -6.0214538455463673e+00 0 0 0
548 1 2 -3.6580543623661339e+00 -5.2483577121845171e+00 -6.6951771622423228e+00 0 0 0
978 1 2 -2.6667731856555537e+00 -5.7535456771835838e+00 -6.7557812287150485e+00 0 0 0
431 1 2 -1.8002947279300954e+00 -3.9649091375728420e+00 -6.7542088149587354e+00 0 0 0
707 1 2 -3.8259246714066832e+00 -4.3135755685999664e+00 -6.2698380623745029e+00 0 0 0
975 1 2 -3.4438583328874128e+00 -6.1662437110019415e+00 -5.9842085742569626e+00 0 0 0
438 1 2 -3.8110862250341895e+00 -4.7615202949547308e+00 -4.7002668539802395e+00 0 0 0
849 1 2 -3.6627634079303308e+00 -5.8030395606237724e+00 -4.7313544969240091e+00 0 0 0
850 1 2 -2.8489810162572073e+00 -5.3379982051525969e+00 -4.7270549812334695e+00 0 0 0
851 1 2 -2.7114189781198013e+00 -4.5314921808085060e+00 -4.2408304852227214e+00 0 0 0
540 1 2 -3.7220582224470933e+00 -5.1793876016238860e+00 -5.6124543505533193e+00 0 0 0
541 1 2 -2.8660911171338745e+00 -5.2076250227900394e+00 -5.9248840511528647e+00 0 0 0
792 1 2 -2.7644677017195143e+00 -6.3743279033419968e+00 -5.0224264386804878e+00 0 0 0
791 1 2 -2.2492206571206523e+00 -6.2524624678239427e+00 -5.8573978696950508e+00 0 0 0
437 1 2 -3.1213360786050148e+00 -4.3636203317238182e+00 -5.2828428494058102e+00 0 0 0
432 1 2 -2.4223823140167271e+00 -4.1829234961819344e+00 -6.1204016741051648e+00 0 0 0
789 1 2 -2.0934725273384109e+00 -4.7179407096666353e+00 -5.1524538813338463e+00 0 0 0
542 1 2 -1.9556761412514398e+00 -5.1416718644451160e+00 -6.1422708011991896e+00 0 0 0
790 1 2 -1.9736002527833545e+00 -5.6025378069519967e+00 -5.1697539069821623e+00 0 0 0
793 1 2 -1.9432078453873096e+00 -6.4169843169685574e+00 -4.5462374573699798e+00 0 0 0
788 1 2 -1.8297484213534443e+00 -4.0667085258895757e+00 -4.4658379813831930e+00 0 0 0
981 1 2 -1.3960452012140467e+00 -5.9144663729393159e+00 -6.6205218267372370e+00 0 0 0
652 1 2 3.3059693375630600e-01 -6.5233194037216320e+00 -6.9123881137695991e+00 0 0 0
982 1 2 -4.5110312312118467e-01 -5.6729637734318139e+00 -6.6254998458445131e+00 0 0 0
956 1 2 5.9815759384554801e-01 -5.5281286844230513e+00 -6.7270963401789166e+00 0 0 0
983 1 2 -9.0075148201345068e-01 -5.3977892277823134e+00 -5.8057042439792967e+00 0 0 0
785 1 2 -1.0311683219637249e+00 -4.7673764747668290e+00 -6.5549916890841837e+00 0 0 0
984 1 2 -1.0726021940957220e+00 -5.0080513151073776e+00 -4.9525840585470267e+00 0 0 0
965 1 2 -1.1497140974270292e+00 -6.3891602857255148e+00 -5.2865005157205891e+00 0 0 0
779 1 2 -5.6832513605449275e-02 -4.8203825048210351e+00 -6.1230206946279004e+00 0 0 0
964 1 2 -3.5623812247982684e-01 -5.9475055475789036e+00 -5.0406714842183922e+00 0 0 0
794 1 2 -1.1330715949340724e+00 -5.9368981424600484e+00 -4.2491271119138139e+00 0 0 0
963 1 2 1.9555006370741221e-01 -5.9730637638492023e+00 -5.8440445928562754e+00 0 0 0
778 1 2 1.3941538343441467e-01 -4.9683952494105394e+00 -5.2283246632746989e+00 0 0 0
1036 1 2 4.7092789179681421e-01 -6.3373232098424923e+00 -4.3898677864968896e+00 0 0 0
1035 1 2 7.1008106838659124e-01 -5.3929884381449220e+00 -4.3849790454927087e+00 0 0 0
786 1 2 -1.3299865983968444e+00 -4.2806023611703106e+00 -5.7804988040785990e+00 0 0 0
985 1 2 -5.3547022079123097e-01 -4.4639050804307496e+00 -4.4517618768638130e+00 0 0 0
780 1 2 -1.9666147516697938e-01 -4.0073474399777202e+00 -5.5590589372138028e+00 0 0 0
777 1 2 4.9243144424188184e-01 -4.3324571960145768e+00 -4.5911962568759135e+00 0 0 0
953 1 2 8.6427425519105250e-01 -4.1537365185178636e+00 -5.8276060566234182e+00 0 0 0
1106 1 2 1.1016528015344211e+00 -5.9572584916068916e+00 -5.3135805914133130e+00 0 0 0
952 1 2 1.1115096197486820e+00 -4.8331818434669049e+00 -5.2335232563923011e+00 0 0 0
784 1 2 -6.3561677273326311e-01 -3.9187315032508487e+00 -6.6103163388518249e+00 0 0 0
954 1 2 3.7225619933909493e-01 -3.9942105975907443e+00 -6.6018297069090064e+00 0 0 0
634 1 2 2.5671640331820500e+00 -4.8892008163937515e+00 -6.9016173801982168e+00 0 0 0
957 1 2 1.3918313109332623e+00 -5.4343682852801951e+00 -6.1973202736907318e+00 0 0 0
958 1 2 1.5317160135005932e+00 -6.3173953295597292e+00 -6.4987437272587876e+00 0 0 0
646 1 2 2.1494353655578475e+00 -5.1726674715548029e+00 -5.4578780444653212e+00 0 0 0
1105 1 2 1.9187098599031713e+00 -6.3262815682858511e+00 -5.4607286897407912e+00 0 0 0
647 1 2 2.5306447908466274e+00 -5.6634216557359274e+00 -6.1741265934629244e+00 0 0 0
1104 1 2 2.8480287898799501e+00 -6.2675738647101822e+00 -5.2206639198703204e+00 0 0 0
645 1 2 2.6474907372194059e+00 -4.5070229489441509e+00 -5.9552536321185627e+00 0 0 0
1107 1 2 1.7213961474609840e+00 -5.7768577404621340e+00 -4.6144247123918305e+00 0 0 0
1108 1 2 2.2284614337698625e+00 -6.5755228999596769e+00 -4.4584027153154135e+00 0 0 0
622 1 2 2.0671886236091019e+00 -4.7763470632233380e+00 -4.4723921381410312e+00 0 0 0
1103 1 2 3.1960649725542187e+00 -5.3034314235333913e+00 -5.4343482780454657e+00 0 0 0
644 1 2 1.7556673403214167e+00 -4.4262999318721032e+00 -6.2383162312758307e+00 0 0 0
623 1 2 2.7484971972840406e+00 -4.3287010310266245e+00 -4.9384625877059172e+00 0 0 0
951 1 2 1.7694373391347018e+00 -4.0736285094670013e+00 -5.2569727318647876e+00 0 0 0
948 1 2 1.5099784564133423e+00 -3.9020862023124501e+00 -4.2947844023905120e+00 0 0 0
621 1 2 2.8312695624636648e+00 -5.4318730481896225e+00 -4.4301379156714074e+00 0 0 0
1169 1 2 3.3459923009788937e+00 -4.0397930610318671e+00 -6.5831207547567372e+00 0 0 0
624 1 2 3.5088200121405029e+00 -3.9221162013685169e+00 -5.3913507319265426e+00 0 0 0
1101 1 2 3.6429096679086928e+00 -6.0718964463319338e+00 -6.1091998576525492e+00 0 0 0
1102 1 2 3.4656202647565491e+00 -5.1454980860533466e+00 -6.3322505667862483e+00 0 0 0
1176 1 2 3.6387760443978490e+00 -4.7784438390270108e+00 -4.6544980435433958e+00 0 0 0
630 1 2 4.2935583278566778e+00 -4.6120337793445403e+00 -6.6689220151327264e+00 0 0 0
1100 1 2 4.4473236929004232e+00 -5.5887194958735504e+00 -6.0319108079835742e+00 0 0 0
1120 1 2 4.2058568625131452e+00 -5.7471384097627931e+00 -4.9557126662559607e+00 0 0 0
1099 1 2 5.1687040566652591e+00 -5.5559308908760023e+00 -5.4472281571952443e+00 0 0 0
629 1 2 5.0502080153444435e+00 -4.0179080248050116e+00 -6.7413390006250795e+00 0 0 0
1175 1 2 4.1112840286468950e+00 -4.7654524939739966e+00 -5.4802822761356298e+00 0 0 0
628 1 2 5.0791970910374387e+00 -4.4086772790018127e+00 -5.8295145876771830e+00 0 0 0
1121 1 2 4.8006778164126631e+00 -5.0982626869951702e+00 -4.5178878963420264e+00 0 0 0
1174 1 2 4.3945049553926276e+00 -4.0397495174411464e+00 -4.8792083565203948e+00 0 0 0
1098 1 2 5.0168485775877851e+00 -6.4161069036890792e+00 -4.9456892534389398e+00 0 0 0
1123 1 2 5.5395279043302974e+00 -5.7766829505127042e+00 -4.2899470216181292e+00 0 0 0