LAMMPS data file via write_data, version 16 Mar 2018, timestep = 0

4000 atoms
2 atom types
4013 bonds
2 bond types

-9.0587849724719138e+00 9.8976696463029459e+00 xlo xhi
-1.0255304393728554e+01 1.0071036635941841e+01 ylo yhi
-9.8423291222344229e+00 9.7467495309338990e+00 zlo zhi

Masses

1 1
2 1

Atoms # bond

181 1 1 -1.2864985465141157e-01 -6.9241692527551715e+00 -7.0626827642136485e+00 0 0 0
335 1 2 -4.0304822883716334e+00 -3.2856550491803422e+00 -7.6262608903182976e+00 0 0 0
207 1 2 -2.7668893716023764e+00 -3.9251741749530464e+00 -7.5950089671341470e+00 0 0 0
3782 1 2 -1.7092986424832746e+00 -3.7514285656465098e+00 -8.2277743926677793e+00 0 0 0
3783 1 2 -1.5320021053750370e+00 -4.3184339118671451e+00 -7.5520532315179585e+00 0 0 0
357 1 2 -3.0706786999005105e+00 -2.8601757400138639e+00 -7.3823873617267743e+00 0 0 0
358 1 2 -2.8033935537707713e+00 -2.6481339276388800e+00 -8.3054331264282073e+00 0 0 0
353 1 2 -1.1219719298477213e+00 -3.0899419397664594e+00 -8.8588158625613680e+00 0 0 0
3781 1 2 -2.0459922193816946e+00 -3.1005333081968192e+00 -7.5790547249433464e+00 0 0 0
206 1 2 -2.6166879446686475e+00 -4.7961119894301625e+00 -7.2560992472494537e+00 0 0 0
144 1 2 -6.7263018330128077e-01 -3.8940018076671667e+00 -7.9165801878582505e+00 0 0 0
101 1 2 -1.6168401308025732e-01 -4.6909182775580245e+00 -7.3565106618110079e+00 0 0 0
102 1 2 3.6726231496893530e-01 -4.0913682837950081e+00 -7.9528744719990101e+00 0 0 0
3471 1 2 9.4141468235786274e-01 -3.3583938312966208e+00 -8.3653937861500935e+00 0 0 0
143 1 2 -1.6106771907920905e-01 -3.5263896445264624e+00 -7.1756569758801403e+00 0 0 0
103 1 2 9.6036600454141541e-01 -3.6340839282693307e+00 -7.3726334219969303e+00 0 0 0
150 1 2 -6.9214520174160876e-01 -2.8011364536718655e+00 -7.9021706319756024e+00 0 0 0
3472 1 2 3.5528942567096328e-01 -2.8657481953741204e+00 -7.8007901710479084e+00 0 0 0
145 1 2 -1.9552703055888795e-01 -3.4745045242163304e+00 -8.5773409106619543e+00 0 0 0
146 1 2 2.4385287151152321e-01 -2.6890398422876900e+00 -8.9025352860213616e+00 0 0 0
3470 1 2 1.3188586397683884e+00 -2.6961754561288007e+00 -8.9121905462378930e+00 0 0 0
140 1 1 9.7458296416456880e-01 -4.7629345293736840e+00 -7.1503933898331749e+00 0 0 0
110 1 2 2.4978676878589035e+00 -4.1259894002846638e+00 -7.6347712325446384e+00 0 0 0
109 1 2 1.9182103603307801e+00 -3.4504573983809665e+00 -7.8372294391832362e+00 0 0 0
108 1 2 2.1912157138427344e+00 -2.7592687249202075e+00 -7.1733629405485102e+00 0 0 0
2559 1 2 3.2116029700078967e+00 -3.2894759952038606e+00 -7.1057682908768172e+00 0 0 0
2560 1 2 3.0312109845132009e+00 -2.8242223906134947e+00 -7.9980109370916832e+00 0 0 0
360 1 2 -3.9273009307338711e+00 -1.5496316476050847e+00 -8.0413050496685905e+00 0 0 0
334 1 2 -4.0713063157737333e+00 -2.3633812915581762e+00 -7.4250897825603595e+00 0 0 0
332 1 2 -4.9529015023174674e+00 -1.7989038715732775e+00 -7.4502210446340253e+00 0 0 0
333 1 2 -4.6913871911755782e+00 -2.5450266192627997e+00 -8.0363280250913505e+00 0 0 0
344 1 1 -4.7576901707804486e+00 -5.8081138648156538e-01 -7.7487789222138010e+00 0 0 0
345 1 1 -4.4991345281775121e+00 -2.5327205599838321e-01 -8.5924312604055970e+00 0 0 0
343 1 2 -4.2747076883576334e+00 -1.0265435272411074e+00 -7.0916041410136774e+00 0 0 0
359 1 2 -3.5247573785628581e+00 -2.1490442532277170e+00 -8.6540281199593565e+00 0 0 0
361 1 2 -3.4733470513884743e+00 -7.9449579483045962e-01 -7.9239269537867090e+00 0 0 0
348 1 2 -2.7068850988633026e+00 -1.3218164338084861e+00 -8.7488872526156278e+00 0 0 0
356 1 2 -3.0463610707274604e+00 -1.9096607620095618e+00 -7.5096020841222053e+00 0 0 0
354 1 2 -1.7820848472582598e+00 -2.5223602102218932e+00 -8.3694732658730420e+00 0 0 0
355 1 2 -2.1288977632742543e+00 -2.0712443915663199e+00 -7.6043472742087399e+00 0 0 0
151 1 2 -1.1203391761328074e+00 -1.8976088425903233e+00 -7.8490803454068763e+00 0 0 0
363 1 2 -1.5993092842232746e+00 -7.8370195248875751e-01 -7.5813771215566037e+00 0 0 0
349 1 2 -1.7771164233172645e+00 -1.3437064357670063e+00 -8.5004727866440728e+00 0 0 0
362 1 2 -2.5011221941134174e+00 -9.9601027358818195e-01 -7.7839494434854322e+00 0 0 0
347 1 2 -2.6061155132659488e+00 -4.0159331636984269e-01 -8.8364363387070881e+00 0 0 0
346 1 2 -3.5709694598758364e+00 -2.3497807523261696e-01 -8.9242798858169916e+00 0 0 0
1987 1 2 -1.6510739006416606e+00 -2.3417158326266058e-01 -8.5179513082999119e+00 0 0 0
1988 1 2 -1.6843592183338634e+00 -6.7234499398387360e-01 -9.3708694938147801e+00 0 0 0
352 1 2 -8.1532334990966293e-01 -2.1749029119266665e+00 -8.9185551083550365e+00 0 0 0
351 1 2 -1.8486385537767744e-01 -1.4260382439589845e+00 -9.1624643938427557e+00 0 0 0
350 1 2 -8.7148865552261079e-01 -1.1153608484744932e+00 -8.5774291496633293e+00 0 0 0
1989 1 2 -8.7886000285512444e-01 -2.8095742180843591e-01 -9.2987872425827582e+00 0 0 0
1993 1 2 -6.1927969977957609e-01 -2.4916687287612321e-01 -8.1013082260002918e+00 0 0 0
1992 1 2 5.4225843256217786e-02 -5.2741862721340926e-01 -8.6613852741813311e+00 0 0 0
1990 1 2 -1.5323017998728597e-01 -6.1952655903614728e-01 -9.8403690695525157e+00 0 0 0
147 1 2 -3.8944842376772912e-02 -2.0024051311311983e+00 -8.1730601371363623e+00 0 0 0
1991 1 2 6.5674503406004803e-01 -6.3469045114695100e-01 -9.4342518737541816e+00 0 0 0
3469 1 2 8.5223063095478591e-01 -1.7977909523438873e+00 -9.0356783582535911e+00 0 0 0
3468 1 2 7.8900997779023385e-01 -1.3285477993449819e+00 -8.2298490918038265e+00 0 0 0
3467 1 2 1.1489061436855759e+00 -2.1565345811201850e+00 -8.0730227871903928e+00 0 0 0
3466 1 2 1.4324754471052605e+00 -1.5756159385172395e+00 -7.3851144817761654e+00 0 0 0
2792 1 2 1.3564830099639780e+00 -4.6598383225233392e-01 -7.8830302812240252e+00 0 0 0
149 1 2 -3.8776115317834281e-01 -2.3560301476132040e+00 -7.1672928864954404e+00 0 0 0
3473 1 2 1.0041552937656781e+00 -2.6254110499071093e+00 -7.1286782733566953e+00 0 0 0
148 1 2 3.5732333287442908e-01 -1.6952595302344644e+00 -7.3577768537667634e+00 0 0 0
2790 1 2 5.0032128066342851e-01 -6.3693169021631735e-01 -7.2545381579474872e+00 0 0 0
1994 1 2 -4.8336399329886420e-01 -1.0333448525852893e+00 -7.5966592518504372e+00 0 0 0
2533 1 2 1.5777892837098035e+00 -5.0508619369273533e-01 -9.0333620587884500e+00 0 0 0
2795 1 2 2.2150372533277918e+00 -2.2272252673300161e+00 -8.0491928248583839e+00 0 0 0
2793 1 2 1.8949560887502848e+00 -1.2271239061151276e+00 -8.2689504577228874e+00 0 0 0
2801 1 2 2.2284957186210184e+00 -6.6273335353354057e-01 -7.2230913602422051e+00 0 0 0
2796 1 1 2.0731536594005946e+00 -2.0003592675486215e+00 -9.0239447063276650e+00 0 0 0
2794 1 2 2.7713916804032710e+00 -1.4860288635757810e+00 -7.8182202390190945e+00 0 0 0
2797 1 1 3.0356069469132452e+00 -2.0384970754418386e+00 -8.6787625701224975e+00 0 0 0
2798 1 1 2.7794121896798747e+00 -1.0823193200380039e+00 -8.7882648251630382e+00 0 0 0
2503 1 2 3.8458177397348541e+00 -7.7039743837431196e-01 -8.1751088781906684e+00 0 0 0
2562 1 2 3.7813017291499600e+00 -1.7795085428792163e+00 -7.6342170758354726e+00 0 0 0
2502 1 2 3.3107435448576359e+00 -7.0420853521511739e-01 -7.3717292574392577e+00 0 0 0
2799 1 2 2.5506732823053420e+00 -3.8267538952937064e-01 -8.1947645730340390e+00 0 0 0
2561 1 2 3.0961388021925393e+00 -2.2515028463224107e+00 -7.1731466220489857e+00 0 0 0
2706 1 2 4.4763809648474231e+00 -8.8088854675016559e-01 -7.3453785059035619e+00 0 0 0
2705 1 2 5.2090953845127697e+00 -1.4872693713817391e+00 -7.3922891319773756e+00 0 0 0
2707 1 2 5.1288734573853167e+00 -2.1047141590605145e-01 -7.4209844470139741e+00 0 0 0
1286 1 1 -4.5721832362808605e+00 5.0001849842321022e-01 -7.7304841762169936e+00 0 0 0
1982 1 1 -4.1134688559504866e+00 1.7067135411922729e+00 -7.9121540027063029e+00 0 0 0
1287 1 1 -5.3968946621037075e+00 3.3090982655883699e-01 -7.2416999802716671e+00 0 0 0
467 1 1 -4.9335249650700073e+00 1.3950831615706449e+00 -7.1326569624043623e+00 0 0 0
472 1 1 -4.9620247377209576e+00 2.3535986662270281e+00 -7.5152112733989949e+00 0 0 0
473 1 1 -5.8337784016407941e+00 1.8648510853818405e+00 -7.5426789773704419e+00 0 0 0
1284 1 2 -2.9804453368586850e+00 8.8722029833819382e-01 -7.5602304864040892e+00 0 0 0
1285 1 2 -3.6333345454141219e+00 3.1854779628448315e-01 -7.9307631009329356e+00 0 0 0
1986 1 2 -2.0619887464058859e+00 4.5390595290210950e-01 -9.1611909536380907e+00 0 0 0
2000 1 2 -1.4259786212932029e+00 2.4106489876726053e-01 -7.4249980427832805e+00 0 0 0
1985 1 2 -2.8577046903841921e+00 7.4383764989782242e-01 -8.7400111645801903e+00 0 0 0
2525 1 2 -1.3057269437840870e+00 1.4565185209986191e+00 -9.2490397054826374e+00 0 0 0
2526 1 2 -1.2803708435421091e+00 8.2205292760512916e-01 -8.4399714017142706e+00 0 0 0
1282 1 2 -2.1339311303405388e+00 1.1347861311708158e+00 -7.9820200227821623e+00 0 0 0
1983 1 1 -3.1845172721907562e+00 1.8222623459504128e+00 -8.1352546434361788e+00 0 0 0
2142 1 2 -1.4923109543893549e+00 1.8956618678175088e+00 -8.2334366945498960e+00 0 0 0
1283 1 2 -2.4140522912649951e+00 1.2888831737127407e-01 -7.7966430519162726e+00 0 0 0
1281 1 2 -2.3698779496028752e+00 1.8154426533974610e+00 -7.4134166809941986e+00 0 0 0
1998 1 2 -1.5346365832368314e+00 1.3377315441948623e+00 -7.1185652103808525e+00 0 0 0
1984 1 2 -2.6030861085671018e+00 1.6754075400013695e+00 -8.8571007662969361e+00 0 0 0
2143 1 2 -1.2324661330558018e+00 2.3395245022458706e+00 -7.4821324748289815e+00 0 0 0
2524 1 2 -7.6505872243157536e-01 8.1458558715533524e-01 -9.8398825455693952e+00 0 0 0
2527 1 2 -4.0666543898018864e-01 5.7024010081982579e-01 -8.7122743944161876e+00 0 0 0
2528 1 2 1.3619220989043571e-01 3.3330355258223704e-01 -9.4052184366893758e+00 0 0 0
2523 1 2 -1.6959411693335694e-01 1.4102615975985744e+00 -9.2990098672211694e+00 0 0 0
2532 1 2 9.4300688576644098e-01 5.8994115464060068e-02 -8.6782450472405639e+00 0 0 0
2531 1 2 3.8788432287967689e-01 2.5809418886942270e-01 -7.9515883301317620e+00 0 0 0
2530 1 2 4.4730487471675273e-01 1.0252837133372761e+00 -8.4511711302710779e+00 0 0 0
2536 1 2 1.5451707596635229e+00 6.3625888703941080e-01 -8.0070424523551740e+00 0 0 0
2001 1 2 -5.8841904642075860e-01 6.7427741197441471e-01 -7.6042983585470756e+00 0 0 0
2522 1 2 -4.9709077646695976e-01 1.6240842518292797e+00 -8.4453390810896636e+00 0 0 0
2529 1 2 8.0480461047964469e-01 1.0184239461771452e+00 -9.3914595894688091e+00 0 0 0
2515 1 2 1.2094596156679853e+00 1.7469384173808038e+00 -8.0164437580768624e+00 0 0 0
2514 1 2 1.5283131092418833e+00 1.4333615109534112e+00 -8.8481966231778379e+00 0 0 0
2540 1 2 5.1659791949615330e-01 1.0828885667021628e+00 -7.3529208673467776e+00 0 0 0
2516 1 2 3.2588467132650806e-01 2.1286997371855518e+00 -7.7565431930531847e+00 0 0 0
2519 1 2 5.2018460681430723e-01 2.1236430596992646e+00 -8.8268699106846444e+00 0 0 0
2791 1 2 1.0856084382316060e+00 1.2605279997606425e-01 -7.2114969206567947e+00 0 0 0
2537 1 2 1.5964611256649810e+00 1.1235510428965370e+00 -7.1979336854002964e+00 0 0 0
2002 1 2 -5.2363328869681591e-01 1.4902419453413405e+00 -7.2759544652867918e+00 0 0 0
2534 1 2 1.8971171598585594e+00 4.7218035304408795e-01 -9.1594096057779470e+00 0 0 0
2513 1 2 2.2644038523410814e+00 1.9823447194513881e+00 -9.1217129540571555e+00 0 0 0
2535 1 2 2.4368171748103213e+00 6.4039498042528342e-01 -8.4367409685987287e+00 0 0 0
2800 1 2 2.3216846716972652e+00 2.3621930433723329e-01 -7.4610295754437175e+00 0 0 0
2504 1 2 3.5586895150424231e+00 1.0047616137028509e-01 -8.5596450769758405e+00 0 0 0
2505 1 2 3.2938148504036806e+00 4.4751735273935489e-01 -7.6843670073942061e+00 0 0 0
2249 1 2 4.2705397676462988e+00 1.0695490185002505e+00 -8.2644595531572200e+00 0 0 0
2248 1 2 4.1185716535380772e+00 2.0936957580411519e+00 -8.2742201414112415e+00 0 0 0
2211 1 2 2.2907909279118495e+00 1.6182157233779375e+00 -8.0500226619049684e+00 0 0 0
2507 1 2 3.2877731939642412e+00 1.2577645264609054e+00 -9.3474932013138403e+00 0 0 0
2508 1 2 3.2781377283360102e+00 2.2730893957653260e+00 -9.1226688015707751e+00 0 0 0
2506 1 2 3.2628015983886329e+00 1.3054229071482930e+00 -8.3387639004801350e+00 0 0 0
2209 1 2 3.1397522029178235e+00 2.3667329320622708e+00 -7.8404194086450998e+00 0 0 0
2250 1 2 3.8807280077034938e+00 1.4563488443619803e+00 -7.4485953103323768e+00 0 0 0
2212 1 2 2.6301256953192604e+00 1.2551129759270578e+00 -7.2827971641971576e+00 0 0 0
2708 1 2 4.4031241093557281e+00 1.6932238096505925e-01 -7.7692807189818831e+00 0 0 0
2247 1 2 4.8386238001514243e+00 1.9554474264882558e+00 -7.6502515840631053e+00 0 0 0
2709 1 2 4.7216201178215433e+00 8.0301477176801428e-01 -7.0946310329545099e+00 0 0 0
2246 1 2 5.7252238032602314e+00 2.2590731795140662e+00 -7.3607001529917877e+00 0 0 0
1981 1 1 -3.7925940757164232e+00 2.5733589420817076e+00 -7.6641115803374342e+00 0 0 0
1338 1 1 -4.1688990429664115e+00 4.7531468804213564e+00 -7.4575671057629709e+00 0 0 0
1277 1 1 -3.8820629331335379e+00 3.6767174498742206e+00 -7.3981648358125653e+00 0 0 0
1339 1 1 -4.9999834380209469e+00 4.3284473984213614e+00 -7.2430506318375603e+00 0 0 0
1980 1 1 -3.2370087569514046e+00 2.9301544851380150e+00 -8.3548993073998918e+00 0 0 0
1979 1 1 -2.6021414474931772e+00 3.5657545210090555e+00 -8.1097376183191141e+00 0 0 0
2141 1 2 -1.3492827009825330e+00 2.5749726991237933e+00 -8.8543494298424203e+00 0 0 0
1978 1 1 -2.1183203736349561e+00 2.7247398205835043e+00 -7.9822253290315563e+00 0 0 0
2139 1 2 -1.4213695197231668e+00 3.5150465212220188e+00 -8.2640393758631898e+00 0 0 0
1737 1 1 -2.0748569238429408e+00 4.5500007714077153e+00 -8.1088476427291170e+00 0 0 0
1733 1 1 -3.1080054082064419e+00 4.4442562668782681e+00 -7.6751821645219049e+00 0 0 0
1738 1 1 -1.3097983175339711e+00 4.6986063303763315e+00 -8.7098214323152092e+00 0 0 0
1977 1 1 -2.8147928562303326e+00 2.7688589104307044e+00 -7.2694383607577961e+00 0 0 0
1732 1 1 -2.9120513911884820e+00 3.7571920656160125e+00 -7.0753222221151608e+00 0 0 0
2137 1 1 -1.1262060791481954e+00 4.4992276092680941e+00 -7.6427440856826223e+00 0 0 0
2138 1 2 -9.5496666911776429e-01 3.5004240832476032e+00 -7.4040219307539354e+00 0 0 0
1731 1 1 -2.0507010811948936e+00 4.0070798321070384e+00 -7.2629361636768159e+00 0 0 0
2140 1 2 -9.1461357469854243e-01 3.4769672567683796e+00 -9.0510591702130192e+00 0 0 0
2512 1 2 1.5927209373505036e+00 2.5892311702695436e+00 -8.6700609699419466e+00 0 0 0
2521 1 2 -5.0730476164631799e-01 2.5615525181825722e+00 -8.2631045945661121e+00 0 0 0
2520 1 2 -3.2150334955730292e-01 2.5366684401295609e+00 -9.2078832292419346e+00 0 0 0
2517 1 2 1.1355958152686059e+00 2.7945480655658055e+00 -7.7238445721974793e+00 0 0 0
2518 1 2 5.1236620668472588e-01 2.9968001694404505e+00 -8.4424372991990708e+00 0 0 0
2226 1 2 8.4454871515205576e-01 4.0472001299249634e+00 -7.8325568855232914e+00 0 0 0
2227 1 2 1.5024173049132832e+00 3.6608068986949083e+00 -7.2525038202265302e+00 0 0 0
1742 1 2 -3.4455970058195273e-01 3.6940179392684880e+00 -8.2290981445578222e+00 0 0 0
2225 1 2 1.5495027683602958e+00 4.6761980228466733e+00 -7.9351519465958580e+00 0 0 0
1741 1 2 1.2039008523707205e-01 3.7492594701149820e+00 -9.0414006423698989e+00 0 0 0
2145 1 2 2.2373272200634245e-01 3.2334505317750404e+00 -7.4223593189050332e+00 0 0 0
1743 1 2 -1.1427282211710718e-01 4.2188586025927908e+00 -7.3774716720882036e+00 0 0 0
2511 1 2 1.6194566536307129e+00 3.4624446937193358e+00 -8.3096057631678679e+00 0 0 0
1740 1 2 3.2776408001500223e-01 4.5383231878692341e+00 -8.5623089994212851e+00 0 0 0
1739 1 2 -4.9529766014154175e-01 4.4953991934805666e+00 -9.1085458004246167e+00 0 0 0
2144 1 2 -3.8355682411304676e-01 2.5474135666712678e+00 -7.0467695985076295e+00 0 0 0
2210 1 2 2.1727511227041685e+00 2.5172726330685626e+00 -7.6745262708926880e+00 0 0 0
2208 1 2 3.8496581502988194e+00 2.6430504805591974e+00 -7.3411789001833982e+00 0 0 0
2510 1 2 2.5607820925565257e+00 3.2239596471803629e+00 -8.5719355996835471e+00 0 0 0
2509 1 2 3.5089821193604585e+00 3.0612848322421287e+00 -8.5357155109369156e+00 0 0 0
2222 1 2 3.0208872746838975e+00 3.3324429923067305e+00 -7.4868055051771476e+00 0 0 0
2223 1 2 3.3098266142484172e+00 4.0365085653615704e+00 -8.0416620653667970e+00 0 0 0
2224 1 2 2.4046209625375581e+00 4.2659976438670055e+00 -7.7493911262341646e+00 0 0 0
2207 1 2 4.2859456382719259e+00 3.4353493160339634e+00 -7.7481800827564875e+00 0 0 0
2206 1 2 5.2405849212347251e+00 3.1972760228184605e+00 -7.6429691010630050e+00 0 0 0
1735 1 1 -2.4779444791585048e+00 6.0387105253986322e+00 -7.3700326150662328e+00 0 0 0
1736 1 1 -2.2119498382865976e+00 5.1106693688016112e+00 -7.3450133088843979e+00 0 0 0
1734 1 1 -3.2055703158244864e+00 5.4274224332299879e+00 -7.7027373347657901e+00 0 0 0
1748 1 1 -1.2010946987405109e+00 5.7842247101768685e+00 -7.7664429638390464e+00 0 0 0
2136 1 1 -4.6603150435473606e-01 5.0454296345701319e+00 -8.0130689044105043e+00 0 0 0
1745 1 2 6.0137950594629341e-01 5.0313432061314147e+00 -7.3801172389922884e+00 0 0 0
1747 1 1 -4.7648107157548469e-01 6.1602110329260134e+00 -7.2473680717981042e+00 0 0 0
1746 1 1 1.9627936281520431e-01 5.7860277316416600e+00 -7.7898537169512139e+00 0 0 0
2135 1 2 -5.2317990814829862e-01 5.1740447496966411e+00 -7.0690891427630485e+00 0 0 0
2129 1 2 1.3088920163501936e+00 6.1691415451265517e+00 -7.4659039665785416e+00 0 0 0
2130 1 2 2.0849472803674129e+00 5.4618633712941005e+00 -7.3351364263977006e+00 0 0 0
198 1 1 -1.9821368071753389e+00 -8.7527663170341050e+00 -4.4835151299756841e+00 0 0 0
200 1 1 -2.5998262704108970e+00 -7.8482309391664131e+00 -5.6317153235323456e+00 0 0 0
199 1 1 -2.5032370976992344e+00 -7.9350700638958642e+00 -4.6543627856733059e+00 0 0 0
184 1 1 -1.5373045708239288e+00 -7.9674226988805268e+00 -5.1844526836776836e+00 0 0 0
188 1 1 -5.9891653390619171e-01 -8.6891342735257897e+00 -4.6250146676269424e+00 0 0 0
187 1 1 -3.2875789608871608e-01 -7.9832181378065794e+00 -5.1984223661533662e+00 0 0 0
127 1 1 4.1531079992975811e-01 -8.4096051589417513e+00 -4.3592500358797563e+00 0 0 0
2591 1 1 1.4311553980632834e+00 -7.9704591891616481e+00 -5.0065167237586534e+00 0 0 0
323 1 1 -4.9704827396808424e+00 -5.5046048110966961e+00 -5.2028384394738305e+00 0 0 0
87 1 1 -4.3146844930855943e+00 -7.7144672565679953e+00 -4.8344156370549101e+00 0 0 0
202 1 1 -3.9596929033620256e+00 -6.6180635049437759e+00 -5.0117542780504580e+00 0 0 0
322 1 1 -4.2044230856386333e+00 -5.6999816418028182e+00 -5.6983927066170486e+00 0 0 0
27 1 1 -5.4779247631020915e+00 -5.9327821690077913e+00 -4.2916051271745070e+00 0 0 0
171 1 1 -4.4430316615827659e+00 -5.6321097985341018e+00 -4.3506674379986165e+00 0 0 0
99 1 2 -1.2693871330475741e+00 -5.4354802946652709e+00 -6.9856090259663510e+00 0 0 0
201 1 1 -3.1747873006467264e+00 -7.1893037882470470e+00 -5.1970351054766271e+00 0 0 0
203 1 1 -3.3997132736584201e+00 -6.3500404649704345e+00 -5.7662665971995448e+00 0 0 0
204 1 1 -2.8447819222032296e+00 -6.3918701883504729e+00 -6.6125242258388086e+00 0 0 0
179 1 1 -1.3879364092240765e+00 -6.4930413958509092e+00 -6.2695483229517706e+00 0 0 0
177 1 1 -2.5174783472565574e+00 -5.9038808219218621e+00 -5.3621186160450218e+00 0 0 0
178 1 1 -2.0910563458373295e+00 -6.7107246336836726e+00 -5.7295691439973639e+00 0 0 0
183 1 1 -1.1366144329656467e+00 -7.5233094300926027e+00 -5.9501547609398759e+00 0 0 0
185 1 1 -1.7344874420579450e+00 -7.1639078076237031e+00 -4.6863375929461188e+00 0 0 0
119 1 1 -1.0917486716544953e+00 -6.5791101987904970e+00 -5.3140176681155733e+00 0 0 0
92 1 1 -1.9451648107042327e+00 -6.1255478368872058e+00 -4.5080635937195090e+00 0 0 0
93 1 1 -1.6244250338545962e+00 -5.4436635658311978e+00 -5.0698765134263821e+00 0 0 0
90 1 1 -2.9987358698185096e+00 -6.3518573016718403e+00 -4.5313424018267323e+00 0 0 0
320 1 1 -3.1852134918569037e+00 -5.2574853560221033e+00 -5.9105037897763086e+00 0 0 0
321 1 1 -3.5565990781579675e+00 -5.5235139147652044e+00 -4.9650641785784675e+00 0 0 0
205 1 2 -2.3786431033596358e+00 -5.5437370484590698e+00 -6.7697715887848124e+00 0 0 0
98 1 1 -1.1129742837887144e+00 -5.2107092635164118e+00 -6.0336498337053035e+00 0 0 0
176 1 1 -2.5669191780790857e+00 -5.3049423534563429e+00 -4.6455567544309933e+00 0 0 0
139 1 1 1.3563311657615760e+00 -5.5608108333710460e+00 -6.8658709968859144e+00 0 0 0
180 1 1 -4.8494874078125311e-01 -6.2155917082557668e+00 -6.4758553724968566e+00 0 0 0
186 1 1 -6.9321999039020810e-01 -7.3402972155722894e+00 -4.6840086486458565e+00 0 0 0
120 1 1 -2.7112168381395080e-01 -6.9407743998003770e+00 -5.6373944291912101e+00 0 0 0
182 1 1 -3.6369372586171922e-01 -7.5795254814837998e+00 -6.5013423505424655e+00 0 0 0
118 1 1 -5.1870768082466678e-01 -5.8529289720703712e+00 -5.3779242959301836e+00 0 0 0
134 1 1 -8.4646223416085453e-01 -5.6205239474500441e+00 -4.4156494025883468e+00 0 0 0
122 1 1 5.7436631387742976e-01 -7.3369172595820649e+00 -4.7083452723420924e+00 0 0 0
116 1 1 7.2096943138300229e-01 -6.9027156043850573e+00 -6.0441929462552215e+00 0 0 0
121 1 1 -2.2175505867946567e-02 -6.5690895437077685e+00 -4.8174491833737303e+00 0 0 0
117 1 1 3.5173009474466649e-01 -6.0213736020369186e+00 -5.9017984364628395e+00 0 0 0
115 1 1 1.4168264461159503e+00 -6.6589653661302100e+00 -6.6327951357476653e+00 0 0 0
2587 1 1 1.2475190350944529e+00 -6.3469248750908536e+00 -4.8185646260880608e+00 0 0 0
2586 1 1 1.6329227778348832e+00 -6.9932791712376554e+00 -5.3656892115970001e+00 0 0 0
114 1 1 1.3886126496685891e+00 -6.0657686145987428e+00 -5.9086695943419674e+00 0 0 0
3551 1 1 1.5272024962242285e+00 -5.2554047568806395e+00 -5.1432316968771774e+00 0 0 0
138 1 1 5.0129026074427063e-01 -5.9652038930107620e+00 -6.9876300064342782e+00 0 0 0
137 1 1 -1.1301868646585402e-01 -5.2987210124846440e+00 -6.5098877380177083e+00 0 0 0
3544 1 1 4.5089792646009913e-01 -5.4691675778844635e+00 -5.0330290842168370e+00 0 0 0
3550 1 1 1.1941074311574567e+00 -5.4173679056269997e+00 -4.2600345518321951e+00 0 0 0
2585 1 1 2.3157823488790656e+00 -6.7570814173521638e+00 -5.9984646527839685e+00 0 0 0
2584 1 1 2.2516126453885477e+00 -6.1374615249299111e+00 -5.2489426269515782e+00 0 0 0
2592 1 1 2.4230270702453374e+00 -7.6769219713721091e+00 -5.0149855402869052e+00 0 0 0
113 1 1 2.2075687665087189e+00 -5.6393922502974254e+00 -6.1750793972614968e+00 0 0 0
2594 1 1 3.4226661496969388e+00 -7.5593437959620804e+00 -4.4949182223810711e+00 0 0 0
2599 1 1 3.2089128186369940e+00 -5.9991768493011239e+00 -5.5926570555194104e+00 0 0 0
2593 1 1 3.1875232216684686e+00 -7.3425661652556826e+00 -5.4480462739322189e+00 0 0 0
2598 1 1 3.7390781281061023e+00 -6.5585442034140442e+00 -4.9832325620676485e+00 0 0 0
2582 1 1 3.0407492420588009e+00 -5.8452793236786009e+00 -4.5301021434428188e+00 0 0 0
2581 1 1 3.8757261523650097e+00 -5.4789408564657167e+00 -4.7678191553548288e+00 0 0 0
2578 1 1 4.3307825173184913e+00 -6.1085514178222997e+00 -5.7765482510736854e+00 0 0 0
2583 1 1 2.7885961660085341e+00 -6.7187298737229737e+00 -4.7297104999237387e+00 0 0 0
2577 1 1 4.4511606652365696e+00 -5.3240765862241162e+00 -6.3544957161522726e+00 0 0 0
112 1 1 3.0111437287273946e+00 -5.2611345211740410e+00 -6.6323435445741294e+00 0 0 0
2579 1 1 4.8527065290888647e+00 -6.0955682098686017e+00 -4.9863741809326187e+00 0 0 0
2667 1 1 5.5307026568491793e+00 -5.3616014850270366e+00 -4.4929048965543608e+00 0 0 0
328 1 1 -7.0150436970744350e+00 -2.7729564795917647e+00 -5.4502915121659647e+00 0 0 0
327 1 1 -6.7637621380523418e+00 -3.7147394465066639e+00 -5.2099763331647404e+00 0 0 0
221 1 1 -6.6362821833531163e+00 -4.8128696320378186e+00 -4.3439187732001754e+00 0 0 0
264 1 1 -7.7283215723993974e+00 -3.3067571273947216e+00 -4.3141881789538745e+00 0 0 0
324 1 1 -5.1340818820271368e+00 -4.7399308553622808e+00 -5.7850639906505608e+00 0 0 0
325 1 1 -5.6748376037763224e+00 -3.8988468990845635e+00 -5.5566910784216024e+00 0 0 0
326 1 1 -6.0173015833645325e+00 -3.9340763052159504e+00 -4.6370672328870892e+00 0 0 0
336 1 2 -4.7819288116937324e+00 -3.2040832970642485e+00 -6.9500040422152685e+00 0 0 0
212 1 1 -4.7954985055389665e+00 -4.4430239648419221e+00 -4.7894441187338597e+00 0 0 0
210 1 2 -4.0503613534115539e+00 -4.8575113372307319e+00 -6.4477465933165474e+00 0 0 0
209 1 2 -4.4078374012866499e+00 -4.0185692012373266e+00 -6.4674129029629981e+00 0 0 0
211 1 1 -4.1719263591305920e+00 -4.4964696439674965e+00 -5.5146158788495647e+00 0 0 0
330 1 1 -5.6086714956157815e+00 -2.9130419415271076e+00 -6.0636617062474025e+00 0 0 0
271 1 1 -4.5912967705066308e+00 -3.4841888163449548e+00 -5.5669782103022811e+00 0 0 0
337 1 2 -3.9196214898451691e+00 -3.0288569238457499e+00 -6.5774820408089081e+00 0 0 0
270 1 1 -5.1026946843920742e+00 -3.2383486987050971e+00 -4.7898520201273636e+00 0 0 0
213 1 1 -3.8637978971470126e+00 -4.5484411620073564e+00 -4.5433656003304632e+00 0 0 0
217 1 1 -3.9697225031564130e+00 -3.3811795085636351e+00 -4.7520513664175450e+00 0 0 0
267 1 1 -6.1472751054870738e+00 -2.8853908943383999e+00 -4.7455660696821313e+00 0 0 0
208 1 2 -3.5056943220003305e+00 -3.8926626024352133e+00 -6.9174410996226552e+00 0 0 0
318 1 2 -3.4948235695051109e+00 -3.7545896902016915e+00 -5.7091826691013630e+00 0 0 0
214 1 1 -3.0624041924183074e+00 -4.4630182689961568e+00 -4.9623341398627741e+00 0 0 0
319 1 2 -2.9204823446130921e+00 -4.4118972316747778e+00 -6.1878010751637262e+00 0 0 0
3779 1 2 -2.8634204208655136e+00 -3.1371551759496263e+00 -6.2421462241980690e+00 0 0 0
3777 1 2 -2.7640270501044069e+00 -3.1733083714500694e+00 -5.0024672151725227e+00 0 0 0
95 1 2 -1.8585390416704479e+00 -4.4983033776307115e+00 -6.5436292771288134e+00 0 0 0
94 1 1 -2.1650299130774622e+00 -4.8830353344674302e+00 -5.6484026789813608e+00 0 0 0
3780 1 2 -2.2143648440943902e+00 -3.5018809118161713e+00 -6.7861634563087847e+00 0 0 0
3778 1 2 -2.2735028428976771e+00 -3.6123177253559926e+00 -5.6597904902858645e+00 0 0 0
96 1 2 -1.3961885434012880e+00 -3.8489779636026706e+00 -6.0457460559812564e+00 0 0 0
97 1 2 -1.1626713465689662e+00 -4.4994114225528419e+00 -5.4197293259153980e+00 0 0 0
3484 1 2 -1.2604032706367274e+00 -3.4693031438891855e+00 -5.0650186734879661e+00 0 0 0
3784 1 2 -1.1927145173898428e+00 -3.4488792602418568e+00 -7.0012993935349055e+00 0 0 0
3775 1 2 -1.9699491185705935e+00 -4.2709861893089416e+00 -4.6947125366551692e+00 0 0 0
3485 1 1 -1.0004957126768335e+00 -4.0172223662874469e+00 -4.3708877428371871e+00 0 0 0
3776 1 2 -2.0600631318234353e+00 -3.2981053921222063e+00 -4.3732470559921719e+00 0 0 0
317 1 2 -3.5981619178188944e+00 -2.8363515959918182e+00 -5.5996869156835531e+00 0 0 0
3786 1 2 -1.6475872020799178e+00 -2.8010536029231994e+00 -6.0783987763052272e+00 0 0 0
215 1 1 -3.1307999830798399e+00 -3.7435190265941709e+00 -4.2659776037264807e+00 0 0 0
100 1 2 -8.2607313733171639e-01 -4.5795002308672919e+00 -6.7230207271709412e+00 0 0 0
135 1 1 -5.0143701608013136e-01 -4.8275205780158306e+00 -4.7545116537843057e+00 0 0 0
3481 1 2 -4.1293448596971255e-01 -3.8650150341055727e+00 -6.1005505006325524e+00 0 0 0
3482 1 2 -5.6881192784128887e-01 -2.9296072951903422e+00 -6.2083219885274348e+00 0 0 0
3552 1 1 8.5603444239862791e-01 -5.0259057668202916e+00 -5.8792226128980820e+00 0 0 0
136 1 1 -1.5271347788127790e-01 -4.9007301664219449e+00 -5.6769810504914586e+00 0 0 0
3480 1 2 -2.4151524374379543e-01 -3.8229236140949894e+00 -5.2137433870873782e+00 0 0 0
141 1 2 4.3984623025749187e-01 -4.1596127059060501e+00 -6.6297009898456887e+00 0 0 0
142 1 2 4.2985032716444249e-01 -3.2613104286781898e+00 -6.4941664745118928e+00 0 0 0
3545 1 1 6.4390206650716786e-01 -4.5747441784314331e+00 -4.7637935499458459e+00 0 0 0
3479 1 2 6.4471323952299875e-01 -3.9200071191985342e+00 -5.6504937061648697e+00 0 0 0
104 1 2 1.3888375634695700e+00 -3.4862217071619126e+00 -6.5454238819883894e+00 0 0 0
3553 1 1 1.6109865154003398e+00 -4.5726973717611861e+00 -6.1963954427219168e+00 0 0 0
3554 1 1 1.5999592840392796e+00 -4.2536911960200952e+00 -5.2365422003970057e+00 0 0 0
3478 1 2 1.2362493860489765e+00 -3.1989032934173220e+00 -5.4883613897372214e+00 0 0 0
3477 1 2 3.2932856972436658e-01 -2.9437692771192396e+00 -5.5016004141098511e+00 0 0 0
3459 1 2 7.6188393675457455e-01 -3.5014254773037061e+00 -4.5989040870297258e+00 0 0 0
3460 1 2 1.6248029660897401e+00 -3.4973160375628236e+00 -4.3953889973996247e+00 0 0 0
2784 1 2 -1.5821561559350783e-01 -3.0230283341250845e+00 -4.4506088418036551e+00 0 0 0
3483 1 2 -7.0741530264444052e-01 -2.7471593781066685e+00 -5.2847974861474372e+00 0 0 0
111 1 2 2.1865887716137342e+00 -4.7832097182155442e+00 -6.9833004037207944e+00 0 0 0
2603 1 1 2.5456176996001636e+00 -5.0508429190238067e+00 -5.0920967903308885e+00 0 0 0
2600 1 1 3.3767453021323006e+00 -5.1033087920369562e+00 -5.6954902279410096e+00 0 0 0
3555 1 1 2.0303243787109504e+00 -4.5110797328050607e+00 -4.4371496549893079e+00 0 0 0
106 1 2 2.2197653909409878e+00 -3.2928383521157070e+00 -5.7990343921941641e+00 0 0 0
2602 1 1 3.1390264586017933e+00 -4.7235346712888502e+00 -4.4016175007529270e+00 0 0 0
2601 1 1 3.5843167681702353e+00 -4.3775521686778269e+00 -5.1681003600358935e+00 0 0 0
2604 1 1 2.6176282012588570e+00 -4.4494716041602329e+00 -5.8442985188970002e+00 0 0 0
2605 1 1 2.5410856127121333e+00 -3.9047867816329185e+00 -5.0450186993073558e+00 0 0 0
105 1 2 2.3062936465125126e+00 -3.7364894769065171e+00 -6.6192868995078697e+00 0 0 0
3462 1 2 2.4600513763829155e+00 -2.9230315964214650e+00 -4.7068091964713217e+00 0 0 0
2558 1 2 3.4123724358495471e+00 -4.2114257989943127e+00 -6.7316448692386119e+00 0 0 0
2557 1 2 3.3021855552082289e+00 -3.5595364901851645e+00 -5.9827298474770618e+00 0 0 0
2565 1 2 3.9090804308902665e+00 -2.6803404553152022e+00 -6.4239073528839326e+00 0 0 0
2556 1 2 4.1124216601499048e+00 -3.3532115652961010e+00 -5.5596739281579071e+00 0 0 0
2606 1 1 3.2871915438136052e+00 -3.4917793115158595e+00 -4.6827517532728375e+00 0 0 0
2611 1 1 3.9932417139540770e+00 -2.6750991085153171e+00 -4.4908645845359265e+00 0 0 0
2576 1 1 4.2146423985635293e+00 -4.4763244308798598e+00 -5.9892578382601487e+00 0 0 0
2555 1 2 3.4005964107595692e+00 -2.6681412042949346e+00 -5.3590137012232075e+00 0 0 0
2575 1 1 4.6732948138770682e+00 -3.8295406167352146e+00 -6.4722924935244022e+00 0 0 0
2627 1 1 4.4945137813464733e+00 -3.8836222905881170e+00 -4.7690190128830148e+00 0 0 0
2580 1 1 4.5816572637150976e+00 -5.1202117230971114e+00 -5.2111953175231047e+00 0 0 0