LAMMPS data file via write_data, version 16 Mar 2018, timestep = 0

4000 atoms
2 atom types
4013 bonds
2 bond types

-9.7603799352775606e+00 9.5061888735392746e+00 xlo xhi
-9.9426819383894429e+00 9.8410972752852839e+00 ylo yhi
-9.3917309762366976e+00 9.7421505880840140e+00 zlo zhi

Masses

1 1
2 1

Atoms # bond

2263 1 2 -2.0081466708480900e+00 -5.4834793989287887e+00 -6.7395238631565819e+00 0 0 0
4 1 2 -2.9665415572213021e-02 -4.3070584190746981e+00 -7.7289762333804264e+00 0 0 0
106 1 2 1.1674539894205316e+00 -4.5783677886314180e+00 -7.6836177755838042e+00 0 0 0
102 1 2 -5.8483939717658040e-01 -5.1607597182869309e+00 -7.1668451673721636e+00 0 0 0
103 1 2 3.4591559124880961e-01 -5.1802003668415342e+00 -7.1531348866445255e+00 0 0 0
3 1 1 -9.3553580867414265e-01 -4.3760736480970932e+00 -7.9183705235398838e+00 0 0 0
381 1 2 2.2135155255219829e+00 -4.4515030557527551e+00 -7.2049989743619864e+00 0 0 0
379 1 2 3.2720547526885388e+00 -4.6944065905369996e+00 -6.8851368334965013e+00 0 0 0
105 1 2 1.3515840837420077e+00 -5.2087634656829467e+00 -6.9936996206768898e+00 0 0 0
73 1 1 -5.7033058855172083e+00 -2.0496191057575874e+00 -6.8537620932969272e+00 0 0 0
75 1 1 -4.5135969372312221e+00 -2.4428187658442897e+00 -6.9461103585673314e+00 0 0 0
250 1 1 -4.8184968428349446e+00 -1.6538026598840434e+00 -7.7115379241033839e+00 0 0 0
84 1 1 -4.2971204469734916e+00 -3.5190373786059292e+00 -6.9118276621195198e+00 0 0 0
1 1 1 -2.4360809694217584e+00 -4.1670493709434995e+00 -7.7362352971576902e+00 0 0 0
2 1 1 -1.5258649072962909e+00 -4.0076812440591736e+00 -7.3044217159000651e+00 0 0 0
87 1 1 -3.6212454271130579e+00 -3.2222773125278601e+00 -7.8300941981389682e+00 0 0 0
86 1 1 -3.3623786288698709e+00 -3.9304247869212618e+00 -7.2265873070797788e+00 0 0 0
114 1 1 -2.4838937288802740e+00 -3.0882466013704026e+00 -7.6168448011098384e+00 0 0 0
1145 1 1 -1.9917495684426341e+00 -2.1429471806139593e+00 -7.8078536196097668e+00 0 0 0
89 1 1 -3.8136939711544651e+00 -2.0448127768135982e+00 -7.8173276341496400e+00 0 0 0
90 1 1 -2.9789444974315824e+00 -1.9841235571487559e+00 -7.3507806278524814e+00 0 0 0
88 1 1 -3.1636346591959672e+00 -2.5954339016451504e+00 -8.3004537858133265e+00 0 0 0
1143 1 1 -1.6798662028773401e+00 -1.9179857977058095e+00 -8.8380919490470848e+00 0 0 0
598 1 1 -2.6192538565164321e+00 -1.5155479065546165e+00 -8.3688368598528573e+00 0 0 0
1146 1 1 -1.7812909102403538e+00 -1.9316606540515588e+00 -6.9244465286126884e+00 0 0 0
115 1 1 -1.7019771241518327e+00 -2.9374421924809790e+00 -7.0764571210052418e+00 0 0 0
113 1 1 -1.6379704314135199e+00 -3.3177715923714066e+00 -8.0556405542005614e+00 0 0 0
117 1 1 -3.3727606423157379e+00 -2.8916830602396741e+00 -6.7844264910751431e+00 0 0 0
107 1 2 9.5618091037300790e-01 -3.6397869981094235e+00 -7.6637672251278719e+00 0 0 0
1144 1 1 -1.3944956865551861e+00 -1.4921380212592690e+00 -8.0199940236081737e+00 0 0 0
112 1 1 -8.3766062996444357e-01 -2.8130405318250342e+00 -8.2141894593605222e+00 0 0 0
108 1 2 7.6287749900567492e-01 -4.0007902772814328e+00 -8.4877226613491761e+00 0 0 0
109 1 2 3.8357706136406683e-02 -3.3930888452163983e+00 -8.3144266773952893e+00 0 0 0
1141 1 1 -3.9797076502598339e-01 -1.8973596768731746e+00 -8.6656240206143966e+00 0 0 0
1139 1 2 5.3849427230207625e-01 -1.5174714416512285e+00 -8.0266315009474738e+00 0 0 0
110 1 2 1.2092101624025280e-01 -2.6618137057065865e+00 -7.6996837138221661e+00 0 0 0
1138 1 2 9.1582598505122481e-01 -2.2066912725839125e+00 -8.6303646042292570e+00 0 0 0
111 1 2 -5.7546340566967069e-01 -3.2761756982748755e+00 -7.3994158071119962e+00 0 0 0
1148 1 1 -3.6206435946754811e-01 -1.4851716460241398e+00 -7.4876670182651841e+00 0 0 0
1147 1 1 -9.1384302281079888e-01 -2.1866520965446403e+00 -7.3296526765653160e+00 0 0 0
385 1 2 1.0035868808892658e+00 -1.6049136168213207e+00 -6.9247336614794923e+00 0 0 0
384 1 2 1.1143044214113762e+00 -2.3247865348490389e+00 -7.5203275839412829e+00 0 0 0
5 1 2 -3.3780916878797546e-01 -4.1685694656683863e+00 -6.8030854339161904e+00 0 0 0
7 1 2 4.7442808886973509e-01 -3.1480809560430161e+00 -6.8073831102712941e+00 0 0 0
391 1 2 1.6752363613405330e-01 -2.1172080472519719e+00 -6.7438437086756302e+00 0 0 0
382 1 2 1.9661119680549082e+00 -3.8508269801141646e+00 -7.8718188391948241e+00 0 0 0
1127 1 1 3.7139791491371428e+00 -3.6492790248434770e+00 -7.4237768512533950e+00 0 0 0
1134 1 2 3.0476027014092253e+00 -1.8317179591282415e+00 -8.2117784000408705e+00 0 0 0
383 1 2 1.5819977407999830e+00 -2.9496254305075631e+00 -8.1596181410705686e+00 0 0 0
1159 1 2 1.9779508406528727e+00 -1.7365713108111571e+00 -7.7665647691439830e+00 0 0 0
1133 1 2 3.9524086944195922e+00 -1.6898559287275894e+00 -8.3951941429544661e+00 0 0 0
1130 1 2 2.7825790312661325e+00 -2.9377525103161606e+00 -8.0890087417126644e+00 0 0 0
1128 1 1 2.8220776919284867e+00 -3.5808239634749612e+00 -7.2422366665440219e+00 0 0 0
1129 1 2 2.2403579464583285e+00 -2.8198959980080343e+00 -7.3604642326467946e+00 0 0 0
1131 1 2 3.3460634490953685e+00 -2.4811085071962884e+00 -7.4275747157408762e+00 0 0 0
1160 1 2 2.6875540196569325e+00 -1.6237055964761797e+00 -7.1938736347598304e+00 0 0 0
1135 1 2 2.2958590131100021e+00 -2.1658654775951631e+00 -8.6675957790096305e+00 0 0 0
2220 1 2 1.6015628804175688e+00 -3.5494374980465802e+00 -6.8255791649881523e+00 0 0 0
386 1 2 1.8365469269907488e+00 -2.0401652895655653e+00 -6.7371385119212901e+00 0 0 0
1165 1 1 4.5238671836317508e+00 -3.9218343557963498e+00 -6.8003018430250650e+00 0 0 0
1132 1 2 4.0575750159113673e+00 -2.6077487064157032e+00 -8.0349843564102663e+00 0 0 0
1164 1 2 4.6210533300608096e+00 -3.0164927497994447e+00 -7.2399705485380919e+00 0 0 0
1163 1 2 4.3918865688360329e+00 -2.1209956124032718e+00 -6.9839335949223758e+00 0 0 0
367 1 2 5.4325597528553571e+00 -2.2683943409566774e+00 -6.8562569142202623e+00 0 0 0
71 1 1 -6.5807119997136452e+00 -1.3435302702053076e+00 -6.9198376085609725e+00 0 0 0
72 1 1 -5.6714804121247289e+00 -1.0598475717374878e+00 -7.1091202014384329e+00 0 0 0
64 1 1 -6.0129894063596216e+00 1.0902418928001560e+00 -7.2835713968226932e+00 0 0 0
65 1 1 -6.0080985178631332e+00 1.1472872045748315e-01 -7.4092248097626978e+00 0 0 0
50 1 1 -5.0512522226063599e+00 5.5290594308081176e-01 -7.1750918691516361e+00 0 0 0
251 1 1 -4.3799425154379490e+00 -9.7866518540525671e-01 -8.1529307601743479e+00 0 0 0
252 1 1 -4.9422315024802668e+00 -3.8807350275790808e-01 -7.6445788341173699e+00 0 0 0
265 1 1 -4.3295576940929248e+00 -6.7591597306677478e-02 -6.6650008541672401e+00 0 0 0
253 1 1 -4.4635387491951040e+00 1.7568986036689663e-01 -8.2632441102038996e+00 0 0 0
249 1 1 -4.2466434302398888e+00 -1.2398773397905916e+00 -7.1161432126978061e+00 0 0 0
597 1 1 -3.3243845594367900e+00 -1.0793780477993509e+00 -7.9005491559503245e+00 0 0 0
91 1 1 -2.5299457209207712e+00 -1.1471506622651024e+00 -7.1968119383930498e+00 0 0 0
248 1 1 -3.4922016871822721e+00 -8.2470994907108164e-01 -6.6778944484535545e+00 0 0 0
599 1 1 -2.1498223454329013e+00 -7.4729372423552354e-01 -8.1118111921469502e+00 0 0 0
263 1 1 -2.8532284928779510e+00 -1.7744833265948243e-01 -7.5363774991120023e+00 0 0 0
596 1 1 -3.0656732337302426e+00 -4.0160063566545451e-01 -8.4895269546013026e+00 0 0 0
49 1 1 -4.1657463419718734e+00 7.7542530238988427e-01 -7.3664568891504167e+00 0 0 0
264 1 1 -3.8393237131780409e+00 -2.2251838867318724e-01 -7.5095497309760493e+00 0 0 0
262 1 1 -3.2591309090688192e+00 5.5299780113192487e-01 -7.9943804973787627e+00 0 0 0
261 1 1 -3.1917164980840442e+00 7.9396501935767361e-01 -7.0778450815445266e+00 0 0 0
270 1 1 -1.9127091923770980e+00 -2.1279418019463703e-01 -7.0575020786379987e+00 0 0 0
595 1 1 -2.4934916034618499e+00 1.7236564277657124e-01 -9.0159805105754174e+00 0 0 0
260 1 1 -2.2421567261676603e+00 7.6550667327201893e-01 -7.2089985951734565e+00 0 0 0
594 1 1 -2.1324558916816865e+00 3.1155352535973080e-01 -8.1825514016044973e+00 0 0 0
600 1 1 -1.5597913876463243e+00 -3.9414704395155309e-01 -8.8930799512971337e+00 0 0 0
259 1 1 -2.6052377686103330e+00 1.3296835917152980e+00 -7.8778342820398839e+00 0 0 0
254 1 1 -3.9954128882659412e+00 7.3594429553647844e-01 -8.8384725638524220e+00 0 0 0
1142 1 1 -9.8376106937133556e-01 -1.3100926708301122e+00 -9.2340018633024670e+00 0 0 0
1140 1 2 2.3552453740052245e-01 -1.2254084565198635e+00 -8.8821613083817361e+00 0 0 0
1149 1 2 -5.3743336190300128e-01 -8.9174489928123002e-01 -8.1787239663931519e+00 0 0 0
1150 1 1 -1.2597659800015080e+00 -3.4546414624818794e-01 -7.8352588198056896e+00 0 0 0
601 1 1 -6.6997876544692270e-01 -1.7567912388797730e-01 -9.0079306547404858e+00 0 0 0
1151 1 1 -1.2252194485380663e+00 -9.0822640413194233e-01 -7.0601065400145444e+00 0 0 0
1156 1 2 4.6152108569453576e-01 -6.1089528870999221e-01 -7.4620490735882221e+00 0 0 0
602 1 2 2.6521267099776319e-01 -2.7579210624784684e-01 -9.2053133712866391e+00 0 0 0
1157 1 2 9.3538944331691465e-01 -5.6397847173786797e-01 -8.3138938909915865e+00 0 0 0
292 1 1 -3.1066999443296978e-01 3.4570158563264936e-01 -7.8972279211461780e+00 0 0 0
291 1 2 5.2474680531285844e-01 3.7156754776051532e-01 -8.3334204547830879e+00 0 0 0
593 1 1 -1.4209675050177466e+00 6.0599355295953983e-01 -8.6763231545136463e+00 0 0 0
293 1 1 -1.1753162262386685e+00 7.4277702695507142e-01 -7.6205390545692211e+00 0 0 0
592 1 2 -4.8408467526564236e-01 9.0459920958657303e-01 -8.8358240763960989e+00 0 0 0
591 1 2 3.0994671051983375e-01 1.3470941261148324e+00 -8.4834373880096638e+00 0 0 0
603 1 2 6.6612894838217618e-01 6.4699234309865439e-01 -9.3898162681964195e+00 0 0 0
590 1 2 4.3764622518313834e-01 1.1002768905951839e+00 -7.5517325319945909e+00 0 0 0
1152 1 1 -4.9313360933084244e-01 -4.0857278961390131e-01 -7.0431587842400152e+00 0 0 0
1155 1 2 3.7966659776507822e-01 1.6151085019436839e-01 -6.9029239104485018e+00 0 0 0
290 1 2 1.1732743939672077e+00 1.5336163838048189e-01 -7.6580415318979957e+00 0 0 0
589 1 2 1.2326380945629476e+00 1.1218042649007933e+00 -8.1151373984336335e+00 0 0 0
580 1 2 -4.8152577696872645e-01 9.3416726620172030e-01 -6.6828289534636225e+00 0 0 0
1137 1 2 1.4237597490154639e+00 -1.3794712484802047e+00 -8.6929145992480628e+00 0 0 0
1136 1 2 2.3333846601728445e+00 -1.2191047911280448e+00 -8.8645569222722784e+00 0 0 0
1158 1 2 1.4520384811375955e+00 -1.0010719216291564e+00 -7.6943014757449255e+00 0 0 0
1161 1 2 3.6893985171724761e+00 -1.4118424650253685e+00 -7.3264878616063802e+00 0 0 0
611 1 2 2.7229142009206111e+00 -8.4336759186702481e-01 -7.9041474704493986e+00 0 0 0
613 1 2 3.4253627476178807e+00 -9.2564403803506912e-01 -8.9135421581279495e+00 0 0 0
612 1 2 3.0974270705323614e+00 -1.7173293171302723e-01 -8.4900368080716451e+00 0 0 0
610 1 2 2.0426031625981533e+00 -3.0945487885963291e-01 -8.2992929417961996e+00 0 0 0
609 1 2 2.1617088324467679e+00 5.6312491148174371e-01 -8.0019570361837022e+00 0 0 0
604 1 2 1.4896239135882507e+00 5.8334401379864231e-01 -8.9635143082494775e+00 0 0 0
605 1 2 1.4261996808937396e+00 -3.6752646491673685e-01 -9.2137856877063609e+00 0 0 0
608 1 2 3.0471838485149920e+00 8.4404872460169367e-01 -8.1544232130297303e+00 0 0 0
607 1 2 2.5620567039430755e+00 5.9563800809318279e-01 -9.0259573703714242e+00 0 0 0
606 1 2 2.3431780818894299e+00 -2.7111039800159964e-01 -9.3092208331318549e+00 0 0 0
288 1 2 2.0997647586195645e+00 -1.7257484742970403e-01 -7.3091277713935350e+00 0 0 0
285 1 2 3.2699907783329154e+00 4.0054460513491770e-02 -7.4901474798687762e+00 0 0 0
289 1 2 1.6128633463439033e+00 5.2279257629427500e-01 -6.8724478849900779e+00 0 0 0
284 1 2 2.8300013560703006e+00 8.0159002901424847e-01 -7.1071195895409058e+00 0 0 0
614 1 2 3.9246642388777686e+00 -6.5850823468962738e-01 -8.0154111733118008e+00 0 0 0
286 1 2 3.0567182947098441e+00 -6.6660445784102196e-01 -6.7980978502643925e+00 0 0 0
1162 1 2 4.6402344238851256e+00 -1.3918687201480358e+00 -7.5526194573607812e+00 0 0 0
618 1 2 4.4454441505848665e+00 1.3232315409113358e+00 -7.8642719684392635e+00 0 0 0
617 1 2 4.1904541209881421e+00 7.5930459829563202e-01 -8.5933493038000464e+00 0 0 0
1106 1 2 6.1836295710963292e+00 -2.0652007751988322e-01 -7.2558485610520016e+00 0 0 0
364 1 2 5.1659290860976972e+00 -4.9954927448140318e-01 -7.6871460201558071e+00 0 0 0
616 1 2 4.3504486376074016e+00 2.9022080158132396e-01 -7.7643281486390112e+00 0 0 0
363 1 2 5.4231813474351327e+00 4.2541910743903844e-01 -7.8116127822079715e+00 0 0 0
615 1 2 4.1642729821302016e+00 -3.8378162981080843e-01 -7.1683337584043150e+00 0 0 0
362 1 2 5.1107649588146362e+00 6.6449791571876404e-01 -6.9294956948256781e+00 0 0 0
623 1 2 4.1252643034819121e+00 8.8573156980846302e-01 -6.8704473544598192e+00 0 0 0
1105 1 2 6.1661570882846055e+00 7.1757551971623679e-01 -6.9771698373606856e+00 0 0 0
366 1 2 5.4266740898799162e+00 -1.3203895801732046e+00 -6.9172825815066785e+00 0 0 0
365 1 2 5.1522726976362874e+00 -4.0586395219358584e-01 -6.7747414838026705e+00 0 0 0
63 1 1 -5.4751747046030683e+00 1.8398523000381288e+00 -7.6165144193996550e+00 0 0 0
479 1 1 -4.5941179197758704e+00 1.4620849026836058e+00 -8.0988724188903518e+00 0 0 0
62 1 1 -5.9020506058097917e+00 2.1293990523488140e+00 -6.8266563685866419e+00 0 0 0
482 1 1 -4.5255256786375675e+00 1.7864824727767112e+00 -7.0568778500859652e+00 0 0 0
61 1 1 -5.3283013544512299e+00 2.8472162968936621e+00 -7.0029863311434779e+00 0 0 0
478 1 1 -4.4887543969040946e+00 2.4115306087661450e+00 -7.9941992557779695e+00 0 0 0
476 1 1 -4.9098538092208708e+00 3.9322637190582475e+00 -7.1033626172845628e+00 0 0 0
477 1 1 -4.4425550464646513e+00 3.2204303206123961e+00 -7.4405613357056231e+00 0 0 0
480 1 1 -3.6655992538678541e+00 1.6090636807211605e+00 -7.8512282336222228e+00 0 0 0
481 1 1 -3.5754785674677487e+00 1.7981990413161111e+00 -6.8925672089969394e+00 0 0 0
258 1 1 -2.1798546890710990e+00 1.3931985484863318e+00 -8.7262181079245220e+00 0 0 0
515 1 1 -2.4657835836890967e+00 1.6802460914823469e+00 -6.6672342554224091e+00 0 0 0
257 1 1 -1.9664763142759056e+00 2.3617724432946012e+00 -8.4545195303522185e+00 0 0 0
514 1 1 -2.6414035332854002e+00 2.2858687370114290e+00 -7.4383550870504074e+00 0 0 0
255 1 1 -3.2557681375168559e+00 1.4193997602000232e+00 -8.8181349286853052e+00 0 0 0
513 1 1 -3.4782333117811546e+00 2.6598738521344023e+00 -7.4977358929962383e+00 0 0 0
322 1 1 -2.6649071315338717e+00 3.1674308051380606e+00 -7.9801665467303602e+00 0 0 0
323 1 1 -3.4654358907783855e+00 3.6213587978106290e+00 -7.7775708287079333e+00 0 0 0
321 1 1 -2.5495751216906481e+00 3.4539170983228198e+00 -7.0801220411103341e+00 0 0 0
256 1 1 -2.8958702942386587e+00 2.2640776167342120e+00 -8.5488196627452613e+00 0 0 0
582 1 1 -1.6821532330998754e+00 1.7128434804235286e+00 -7.3803526756574671e+00 0 0 0
320 1 1 -1.8242654589206184e+00 2.9314661005401219e+00 -7.2518058097732956e+00 0 0 0
458 1 1 -3.7589369295305071e+00 3.5702127725735116e+00 -6.6994838430695207e+00 0 0 0
294 1 2 -5.1200598895034322e-01 1.4286857459996551e+00 -7.7022757347314279e+00 0 0 0
586 1 2 1.1445642513041236e+00 1.5080481524808012e+00 -6.7147870636907658e+00 0 0 0
583 1 2 -8.6815891833924119e-01 2.0922072473089495e+00 -6.9796798506163809e+00 0 0 0
296 1 2 -3.8691190048973867e-01 2.3892596718706813e+00 -8.7775291202277543e+00 0 0 0
584 1 2 6.9197239873327321e-02 1.8802115752259445e+00 -6.7974599240471276e+00 0 0 0
295 1 2 -6.3518209593443634e-02 2.2455356337900643e+00 -7.8463756925206916e+00 0 0 0
297 1 2 -1.0829496270866308e+00 1.8170159397803860e+00 -8.4797976821134124e+00 0 0 0
298 1 2 -1.0194394647468918e+00 2.6035239358552800e+00 -7.9289938923723842e+00 0 0 0
315 1 2 4.8766022347928772e-01 3.0351396846558458e+00 -7.4840074927171676e+00 0 0 0
299 1 2 -4.9770215975710952e-01 3.0797438558035219e+00 -7.2869387691767322e+00 0 0 0
319 1 2 -1.3553060442873786e+00 3.7782564885674033e+00 -7.2578224081078853e+00 0 0 0
318 1 2 -1.4672817866878294e+00 3.5783511065913691e+00 -8.1732191681258328e+00 0 0 0
316 1 2 2.1072834075559038e-01 3.1576594981371979e+00 -8.3633571721055286e+00 0 0 0
317 1 2 -5.6203023894400472e-01 3.7598782170082763e+00 -8.1811111750138199e+00 0 0 0
300 1 2 -9.4730909642917388e-02 3.9313485028292239e+00 -7.2661697673361534e+00 0 0 0
587 1 2 9.5282033204160699e-01 2.0019685600259494e+00 -7.5042798191265163e+00 0 0 0
306 1 2 8.6400060745475926e-01 2.2483064910478747e+00 -8.4851123950143172e+00 0 0 0
305 1 2 1.2464227021073593e+00 3.0347672043790044e+00 -8.6289886563315257e+00 0 0 0
588 1 2 1.8335412078158786e+00 1.4100338912354102e+00 -7.4691759921036525e+00 0 0 0
622 1 2 3.5991803537020561e+00 1.5719435095660477e+00 -7.2944498509740452e+00 0 0 0
304 1 2 1.2568987647639165e+00 3.7724214094534325e+00 -8.0550024834885789e+00 0 0 0
307 1 2 1.4657398417755934e+00 1.7655602077582377e+00 -9.0475684138328614e+00 0 0 0
621 1 2 2.7947285876615400e+00 1.7750967838405889e+00 -7.7714715790484306e+00 0 0 0
308 1 2 2.2666266915932565e+00 1.4836376096975821e+00 -8.6263863349676910e+00 0 0 0
309 1 2 1.8717201956603269e+00 2.2348562919901211e+00 -8.1766267104255181e+00 0 0 0
313 1 2 1.8297697633337202e+00 2.2806081225683159e+00 -6.8509720685830970e+00 0 0 0
352 1 2 3.5513837381529236e+00 2.7212201783053458e+00 -8.0575700569287623e+00 0 0 0
312 1 2 2.4644178393668388e+00 2.7011009868037710e+00 -7.4318300327952151e+00 0 0 0
314 1 2 1.4724246494182414e+00 2.9960906454405110e+00 -7.3928078355810971e+00 0 0 0
311 1 2 2.4557548151653217e+00 3.3249643367892494e+00 -8.1095315108722268e+00 0 0 0
310 1 2 2.6401543142259456e+00 2.5518878632075617e+00 -8.6760466144130231e+00 0 0 0
441 1 2 2.2694667216290072e+00 3.7225551210224865e+00 -7.1010481295245285e+00 0 0 0
338 1 2 1.2851867282352036e+00 4.1344691847401744e+00 -7.1499756017039582e+00 0 0 0
351 1 2 3.3931818113274423e+00 2.9892872008538061e+00 -7.1760761850846810e+00 0 0 0
341 1 2 3.4523547590303711e+00 3.7944795933234237e+00 -7.8652402101177401e+00 0 0 0
620 1 2 3.4352067792080438e+00 1.7452372537829393e+00 -8.5029554628001858e+00 0 0 0
435 1 2 2.8937206940807054e+00 2.1747653904400739e+00 -6.6670776490178820e+00 0 0 0
355 1 2 5.5783211988860408e+00 1.5011907989714097e+00 -7.4765077669522091e+00 0 0 0
356 1 2 4.8437385202756582e+00 1.6591245257821303e+00 -6.8636638154286675e+00 0 0 0
619 1 2 4.3362449493043211e+00 2.0963967792924323e+00 -8.4762173541876571e+00 0 0 0
354 1 2 5.1816857418065876e+00 2.3449622249182935e+00 -7.8559211591259759e+00 0 0 0
1007 1 2 6.2944889490969453e+00 3.3192940279642720e+00 -7.1318234782659689e+00 0 0 0
353 1 2 4.3190042811221794e+00 2.4920049809203868e+00 -7.5220819471656499e+00 0 0 0
1006 1 2 5.3673349090831239e+00 3.2122078213641743e+00 -7.2949544796618051e+00 0 0 0
342 1 2 4.3048001091724402e+00 4.1686747562087128e+00 -7.4530153239177901e+00 0 0 0
350 1 2 4.0682902627992723e+00 3.4319197724292314e+00 -6.6653836680593272e+00 0 0 0
1005 1 2 5.7760426691718338e+00 2.4051071362042222e+00 -6.8928003452188467e+00 0 0 0
1009 1 2 7.3973677778345426e+00 3.2166732238653606e+00 -6.8123685795841755e+00 0 0 0
460 1 1 -4.7155467998384033e+00 4.9718782905025272e+00 -7.0260721092493972e+00 0 0 0
324 1 1 -3.9377327902236616e+00 4.3294057367557075e+00 -7.4216957857862749e+00 0 0 0
455 1 1 -1.9087701004935866e+00 4.5970808119115931e+00 -6.8031798762235205e+00 0 0 0
330 1 1 -2.3550018058968281e+00 4.4261289522534453e+00 -7.8012489542292736e+00 0 0 0
329 1 1 -2.4730751417899719e+00 5.3183081002416701e+00 -7.4296472900469643e+00 0 0 0
325 1 1 -3.7450239884743546e+00 5.2014659998505381e+00 -6.9913577645906049e+00 0 0 0
328 1 1 -2.3098440009764167e+00 6.2002078345662719e+00 -7.1401506390166105e+00 0 0 0
456 1 1 -2.9252293121519579e+00 4.4141416623195404e+00 -6.8684710371530233e+00 0 0 0
301 1 2 -5.0974895955176380e-01 4.5797496350077571e+00 -6.7617860555783356e+00 0 0 0
337 1 2 6.2884333253563840e-01 4.7652604920858526e+00 -6.8918091542606961e+00 0 0 0
332 1 2 -1.0595825386843378e+00 5.3836639206430483e+00 -7.1647119990928498e+00 0 0 0
331 1 2 -1.3824540477126945e+00 4.6946530369401556e+00 -7.7427744661680631e+00 0 0 0
303 1 2 5.1688182166791952e-01 4.3183468132994438e+00 -7.9799913532371676e+00 0 0 0
302 1 2 -2.9182220407889448e-01 4.7821564143068835e+00 -7.7132384813275587e+00 0 0 0
333 1 2 -1.0043222586415879e+00 6.3507317222482138e+00 -7.0397041138990017e+00 0 0 0
335 1 2 -8.3054836331928547e-03 5.5875165976100725e+00 -6.9826274457764006e+00 0 0 0
336 1 2 6.2383762047962066e-01 5.3147856810040439e+00 -7.6666973525643733e+00 0 0 0
2728 1 2 9.5412874689380534e-01 6.2869954714233227e+00 -7.2135296309540324e+00 0 0 0
339 1 2 1.8806532420349580e+00 4.7071148135690111e+00 -7.6111255875337003e+00 0 0 0
763 1 2 2.7128821267988248e+00 5.1632807160769287e+00 -6.8734595551599043e+00 0 0 0
340 1 2 2.7297142985483265e+00 4.4001191640404365e+00 -7.8456172782469196e+00 0 0 0
764 1 2 3.6088231290917734e+00 5.1021531744124013e+00 -7.1983512825938289e+00 0 0 0
2727 1 2 1.6445573712647905e+00 5.6156039901237547e+00 -7.2100011177620305e+00 0 0 0
765 1 2 3.4094598462351295e+00 4.2328212247040717e+00 -6.8552059431805121e+00 0 0 0
343 1 2 5.0257898882838070e+00 4.6759633916377812e+00 -7.0169735879964215e+00 0 0 0
344 1 1 5.9009438652985162e+00 4.3381629394166090e+00 -6.8957714761128406e+00 0 0 0
774 1 2 4.3055003838086439e+00 5.7755090730158152e+00 -6.6595889254525744e+00 0 0 0
3470 1 2 -2.8700445450288825e+00 -7.4694964757613285e+00 -4.6214513883119599e+00 0 0 0
149 1 2 -1.8031015692968753e+00 -7.3689735287354274e+00 -4.8095882031834636e+00 0 0 0
3732 1 2 -1.9363341937621108e+00 -8.2934247016188394e+00 -4.2366191345375510e+00 0 0 0
3728 1 2 3.9382067983909058e-01 -7.3736127531956663e+00 -5.1314972978224800e+00 0 0 0
3729 1 2 -5.1634839751146178e-01 -7.5017903717640078e+00 -4.8672982239828180e+00 0 0 0
3730 1 2 -9.4274906669082992e-01 -8.3025713198090489e+00 -4.7071776797119220e+00 0 0 0
3717 1 2 -1.1249247771083697e+00 -7.4055904155116954e+00 -3.9648634260322231e+00 0 0 0
1457 1 2 1.8265838527804945e-01 -8.2790027451724288e+00 -4.6575399580962991e+00 0 0 0
1456 1 2 9.3914825859234907e-01 -7.9857882299050775e+00 -4.1735688908935114e+00 0 0 0
3725 1 1 1.6352891767342503e+00 -7.5158700946273163e+00 -4.7645187450209043e+00 0 0 0
3724 1 1 2.5613945050944671e+00 -7.2249562317971225e+00 -4.8950420538355077e+00 0 0 0
2109 1 2 4.0811478024578136e+00 -7.2262701472237580e+00 -4.1384994694952288e+00 0 0 0
135 1 1 -6.6678447062141863e+00 -4.3945411702153052e+00 -4.8714568218998391e+00 0 0 0
133 1 1 -5.8073636631713867e+00 -4.9598238182561918e+00 -4.8930883846794435e+00 0 0 0
3978 1 1 -4.6580402909425906e+00 -5.0825328076931937e+00 -5.3355605743913763e+00 0 0 0
3473 1 2 -4.5478318982411849e+00 -6.5112164014253713e+00 -4.5766875833382450e+00 0 0 0
134 1 1 -5.9984748326734865e+00 -4.3701401485169997e+00 -4.1043287854080388e+00 0 0 0
132 1 1 -5.0710394024631507e+00 -5.2710181545331345e+00 -4.3281392513651733e+00 0 0 0
130 1 1 -6.6338736749852032e+00 -5.2910391004912993e+00 -4.1369372532604176e+00 0 0 0
131 1 1 -5.8321221807798560e+00 -5.7926261881708649e+00 -4.0301936752812706e+00 0 0 0
3471 1 2 -2.9879660925560190e+00 -6.9733621194596953e+00 -5.3996382900828719e+00 0 0 0
3472 1 2 -3.7526085998960590e+00 -6.3674339588659281e+00 -5.0837191922758906e+00 0 0 0
3977 1 1 -4.1052515053417045e+00 -4.6374110604023420e+00 -4.7140244528212012e+00 0 0 0
146 1 2 -2.4579342065379732e+00 -6.1533623596735163e+00 -5.9964979547455570e+00 0 0 0
147 1 2 -1.8281498689081970e+00 -6.6303933849163492e+00 -5.5136637825679680e+00 0 0 0
2264 1 1 -2.4801807830263622e+00 -4.6924894276939559e+00 -6.6235473188159464e+00 0 0 0
3979 1 2 -3.8380363918752796e+00 -4.9671238604848833e+00 -5.6817533829984450e+00 0 0 0
3980 1 2 -3.1495058683458730e+00 -4.4074999219664113e+00 -5.4682043334646417e+00 0 0 0
145 1 2 -2.5161484826365741e+00 -5.2791559464694755e+00 -5.6013166384426194e+00 0 0 0
144 1 2 -2.1930605257526290e+00 -4.7315094094335945e+00 -4.9258615353553878e+00 0 0 0
3983 1 2 -2.7418190137648435e+00 -6.1042434951158171e+00 -4.9504648057900562e+00 0 0 0
3982 1 2 -3.1846486204624527e+00 -5.3055057148347426e+00 -4.8144144761078893e+00 0 0 0
3981 1 2 -3.1880620895170821e+00 -4.4148382896930594e+00 -4.4958983861998831e+00 0 0 0
3985 1 2 -1.6746405154423685e+00 -5.7991809372033396e+00 -4.8567488067930116e+00 0 0 0
143 1 2 -2.0998937207829522e+00 -4.3068214020529032e+00 -4.1440397232136252e+00 0 0 0
150 1 2 -1.9827288709263582e+00 -6.5833320946247094e+00 -4.1657430447377326e+00 0 0 0
3976 1 1 -3.9501317404961536e+00 -5.3615766382977368e+00 -4.0423047544581525e+00 0 0 0
3469 1 2 -3.5245313926203936e+00 -7.0348397049764966e+00 -4.1490046391846747e+00 0 0 0
3468 1 2 -3.1757749111640137e+00 -6.1643228795883553e+00 -3.9987451741846587e+00 0 0 0
3984 1 2 -2.3157393568674354e+00 -5.5000542791630407e+00 -4.2338843149929026e+00 0 0 0
148 1 2 -1.1317089844143871e+00 -6.6793679621048785e+00 -4.7969668196713187e+00 0 0 0
3726 1 2 1.1748140135024518e+00 -6.7225124225501967e+00 -4.7602709457909329e+00 0 0 0
101 1 2 -1.2157643937420353e+00 -4.7513248015813989e+00 -6.6496914718425755e+00 0 0 0
100 1 2 -1.4118811425095354e+00 -5.0762332941811366e+00 -5.7739184154378096e+00 0 0 0
2260 1 2 -3.5031731071912542e-01 -6.7573841548902687e+00 -5.6592689601639075e+00 0 0 0
2258 1 2 8.1083621502459502e-01 -6.4706249720795261e+00 -5.8403392611346652e+00 0 0 0
3727 1 2 3.0507341916070924e-01 -6.4741338703421309e+00 -4.8827839247824185e+00 0 0 0
2262 1 2 -1.3735080822010808e+00 -6.2045010604529347e+00 -6.4614312595530805e+00 0 0 0
2259 1 2 9.8778116693231631e-03 -6.1558362143049346e+00 -6.3399532920422432e+00 0 0 0
2261 1 2 -9.2553015553107743e-01 -6.0448845075935509e+00 -5.6394876963733047e+00 0 0 0
398 1 2 -3.4140766395718913e-01 -5.0233686537706221e+00 -6.1586442723434294e+00 0 0 0
399 1 2 8.6873196653146929e-03 -5.5992798903019132e+00 -5.4888877967372718e+00 0 0 0
104 1 2 6.8247416845353381e-01 -5.2843601608248942e+00 -6.2688967972997327e+00 0 0 0
2215 1 2 3.7944777961374532e-01 -4.5117609866378663e+00 -5.5296505296784231e+00 0 0 0
402 1 2 -5.2633813960558473e-01 -5.7916008859338373e+00 -4.5726554724676260e+00 0 0 0
400 1 2 4.7526721759777546e-01 -5.2488818175132863e+00 -4.6850932518636652e+00 0 0 0
403 1 2 -4.8205287653472112e-01 -4.8444743576085152e+00 -4.8860714132112326e+00 0 0 0
2257 1 2 1.1518739670261575e+00 -5.7774024376385071e+00 -5.3831365135936178e+00 0 0 0
3718 1 2 -4.5220701584322720e-01 -6.7409036807509839e+00 -4.0240200786898708e+00 0 0 0
3719 1 2 4.3079974474772015e-01 -7.0522477754115078e+00 -3.9508834903845975e+00 0 0 0
3986 1 2 -1.3018081399940438e+00 -5.1709014838987084e+00 -4.2726102645368309e+00 0 0 0
401 1 2 2.5690246888964452e-01 -5.9889276834675007e+00 -4.0662733386438070e+00 0 0 0
2231 1 2 8.7217521638035700e-01 -4.2927823663820037e+00 -4.3035938013541530e+00 0 0 0
2255 1 2 1.8456540084589634e+00 -6.7088980671991818e+00 -5.6705234635569983e+00 0 0 0
3723 1 2 3.2484903509311502e+00 -6.5629576451753344e+00 -5.1245503411645386e+00 0 0 0
2254 1 2 2.1360631345271246e+00 -6.1266732187702377e+00 -4.9301813726295176e+00 0 0 0
2253 1 2 2.7189663484325446e+00 -5.8448299290757797e+00 -5.6999959087953629e+00 0 0 0
2256 1 2 1.6835693090238026e+00 -5.9059074315288820e+00 -6.1861306353218248e+00 0 0 0
380 1 2 2.3914107423709812e+00 -5.0893305779719773e+00 -6.6356091497916445e+00 0 0 0
2219 1 2 1.6549125981967179e+00 -4.3758321319858382e+00 -6.3058950028752232e+00 0 0 0
2213 1 2 2.0852167686416716e+00 -5.0293129539841797e+00 -5.5663334171157546e+00 0 0 0
2251 1 2 3.2280827654627711e+00 -4.9709027956857570e+00 -5.8673260747754110e+00 0 0 0
2214 1 2 1.3192590349338891e+00 -4.4984149835086811e+00 -5.2843463898277463e+00 0 0 0
2252 1 2 3.7137359721175431e+00 -5.6815174932085046e+00 -5.5790127253855930e+00 0 0 0
2212 1 2 2.7281387286167611e+00 -5.0442238791040461e+00 -4.9292352159865587e+00 0 0 0
2227 1 2 1.6051115545233556e+00 -5.1832737883697435e+00 -4.5424969630883814e+00 0 0 0
2210 1 2 3.7075307805999329e+00 -4.6392990934836540e+00 -4.5070107792500140e+00 0 0 0
2211 1 2 3.4739768409751726e+00 -5.5273676766347748e+00 -4.5291599363464430e+00 0 0 0
3721 1 2 2.1167662259216269e+00 -6.7537729812500107e+00 -4.0839594771372401e+00 0 0 0
3722 1 2 2.9767431801757702e+00 -6.4105258396547500e+00 -4.1846670268617983e+00 0 0 0
2229 1 2 1.3323665091517161e+00 -5.9940243513684619e+00 -3.9687979886507514e+00 0 0 0
2206 1 2 5.0931961568937814e+00 -6.9433889206951775e+00 -4.5916567701148923e+00 0 0 0
2250 1 2 4.1710225650404915e+00 -4.9917509217912244e+00 -6.1773621685732527e+00 0 0 0
2249 1 2 4.2191711174896431e+00 -4.4284340336191281e+00 -5.4392642756544767e+00 0 0 0
2207 1 2 4.4029916215490674e+00 -6.3539718847700843e+00 -5.0343102897595431e+00 0 0 0
2194 1 2 5.5090102702534036e+00 -6.0342654277312464e+00 -5.2602995409424915e+00 0 0 0
1168 1 2 6.1207593303315502e+00 -4.4621752711572720e+00 -5.6659629138372836e+00 0 0 0
2195 1 2 5.0748358568720295e+00 -5.2899075472919179e+00 -5.5586802666875172e+00 0 0 0
2196 1 1 5.4513201808470253e+00 -4.6262655757182252e+00 -4.8986449874709832e+00 0 0 0
2193 1 2 6.3122782631720327e+00 -5.4107456394485087e+00 -5.1391090152066994e+00 0 0 0
2209 1 2 4.4876830834189354e+00 -5.1969691318053028e+00 -4.6470277026293214e+00 0 0 0
2208 1 2 4.9926570524205749e+00 -5.9613524821728356e+00 -4.2996934668594946e+00 0 0 0
2188 1 2 6.7086813570161725e+00 -5.8091210984161510e+00 -4.2449917748278603e+00 0 0 0
2189 1 2 6.3140597308803423e+00 -4.9425363130285822e+00 -4.2091242172061065e+00 0 0 0
2192 1 2 7.1607044720520800e+00 -4.9983240114133292e+00 -5.0992298294823417e+00 0 0 0
2191 1 2 7.3531647439615950e+00 -4.3027466711294027e+00 -4.4271795179297078e+00 0 0 0
125 1 1 -7.1055668164862649e+00 -3.3570509051835891e+00 -4.4804670486089195e+00 0 0 0
2301 1 1 -7.2521676055884683e+00 -1.9994469834094077e+00 -4.5581550328281626e+00 0 0 0
80 1 1 -4.8475950878610528e+00 -4.0620665708121821e+00 -6.1156467736705356e+00 0 0 0
76 1 1 -5.2665245873706068e+00 -3.0369603188903320e+00 -6.6252288769808718e+00 0 0 0
77 1 1 -5.5162935430656654e+00 -3.3298486922801813e+00 -5.7435922322943149e+00 0 0 0
78 1 1 -5.9354912690475050e+00 -4.2638013794918166e+00 -5.8528495523790163e+00 0 0 0
79 1 1 -5.1717229720643560e+00 -4.1276070320660745e+00 -5.2022164280658316e+00 0 0 0