LAMMPS data file via write_data, version 16 Mar 2018, timestep = 0

4000 atoms
2 atom types
3999 bonds
1 bond types

-9.6011902201029180e+00 1.0049410219058137e+01 xlo xhi
-9.6392924823145698e+00 9.8039309984837981e+00 ylo yhi
-9.7245150713564943e+00 1.0031948062898337e+01 zlo zhi

Masses

1 1
2 1

Atoms # bond

2811 1 2 -7.3659807535070654e-01 -7.3551892253065336e+00 -6.9230672984867079e+00 0 0 0
543 1 2 -4.4580385467397461e+00 -4.3747483046140490e+00 -7.3908978419953195e+00 0 0 0
539 1 1 -1.7475859333095158e+00 -4.7301380065505541e+00 -8.3856054221080818e+00 0 0 0
538 1 2 -2.2969111285087069e+00 -5.4126260490516023e+00 -8.1345359565597306e+00 0 0 0
525 1 1 -1.8519014654295063e+00 -4.8555599181739639e+00 -7.1324150362719392e+00 0 0 0
524 1 2 -1.2267100840494312e+00 -5.5583493494550034e+00 -7.6310784224295638e+00 0 0 0
526 1 2 -2.6781692405331978e+00 -4.6920494659530334e+00 -7.4504883343152830e+00 0 0 0
540 1 2 -2.2084201210975993e+00 -4.1882326223339268e+00 -8.9900348821947045e+00 0 0 0
536 1 1 -3.4503693467398193e+00 -5.9944504167694941e+00 -7.1709436737303616e+00 0 0 0
2812 1 1 -1.3434274430527116e+00 -6.5429496948745092e+00 -7.2384910252440120e+00 0 0 0
542 1 2 -3.7926765130904574e+00 -4.3813413849696037e+00 -8.0244460275599714e+00 0 0 0
541 1 2 -2.9377109576036857e+00 -4.4572445819658233e+00 -8.4083142103944652e+00 0 0 0
537 1 2 -3.2343133519870735e+00 -5.4271882614275988e+00 -7.9492670250460620e+00 0 0 0
533 1 1 -2.3691192227523237e+00 -5.7315347762731275e+00 -6.9989708698745252e+00 0 0 0
527 1 2 -3.5484561850836052e+00 -4.8667244511719421e+00 -6.9644695946136590e+00 0 0 0
65 1 1 1.5994840352587153e-01 -5.2013307562063131e+00 -7.7664590042465660e+00 0 0 0
523 1 1 -9.5587245906468221e-01 -4.6471838240652179e+00 -7.6485879766771347e+00 0 0 0
66 1 1 4.9075237407277167e-01 -4.2828462439917754e+00 -8.0543880030096542e+00 0 0 0
60 1 2 1.5899383893739907e+00 -4.2475137035360531e+00 -7.0375322796753110e+00 0 0 0
64 1 2 -5.4657770480534022e-03 -4.4789360455851144e+00 -7.1383993587460282e+00 0 0 0
138 1 2 1.0963027375321475e+00 -5.1189155764661125e+00 -7.1778380366161088e+00 0 0 0
58 1 2 2.5157101947831424e+00 -4.3817303453804275e+00 -7.9602760525453791e+00 0 0 0
131 1 2 3.3242249170677183e+00 -5.3241068563926444e+00 -7.0288550099057625e+00 0 0 0
137 1 1 1.9877487911130973e+00 -5.5144589517828360e+00 -7.0581094686239014e+00 0 0 0
59 1 2 2.5554310433864225e+00 -4.5324361181560944e+00 -7.0451883226414589e+00 0 0 0
552 1 1 -4.7131671876595052e+00 -2.3724735523488616e+00 -7.9969350472434071e+00 0 0 0
551 1 1 -5.2886068952863639e+00 -3.0108639042557162e+00 -7.5565551912738371e+00 0 0 0
517 1 1 -4.4983762819457951e+00 -3.4681027582451867e+00 -8.2014015274846823e+00 0 0 0
516 1 1 -4.3305604305111256e+00 -3.2770643897741674e+00 -7.2135692841850503e+00 0 0 0
553 1 2 -4.3360652554510519e+00 -2.2078047795833284e+00 -7.1489658448432998e+00 0 0 0
554 1 1 -4.4546497165095724e+00 -1.3544736967564825e+00 -7.4906764022041381e+00 0 0 0
550 1 2 -5.3806230920708709e+00 -3.9680455558658680e+00 -7.1973709990503245e+00 0 0 0
167 1 1 -5.4720120691913872e+00 -1.9607904907125870e+00 -7.0944661210067794e+00 0 0 0
518 1 2 -3.6651443375539898e+00 -3.0201420652908064e+00 -8.1261345826696711e+00 0 0 0
463 1 2 -3.4784257532802054e+00 -2.2415534654579288e+00 -8.8749530276592150e+00 0 0 0
519 1 2 -2.7812145947645339e+00 -3.3467359410239856e+00 -8.4011247536456697e+00 0 0 0
520 1 2 -2.5403444846036436e+00 -3.2380705297380823e+00 -7.4988000538112036e+00 0 0 0
462 1 1 -3.5897463807175072e+00 -1.8929347063906883e+00 -7.9630782077135063e+00 0 0 0
461 1 2 -2.7048461333611020e+00 -2.2373646251516002e+00 -8.0464677424283586e+00 0 0 0
460 1 2 -2.3005164533830480e+00 -2.2003192323631646e+00 -8.9140682339473081e+00 0 0 0
459 1 2 -1.7959499963765564e+00 -3.0738592693675773e+00 -8.5946369262871052e+00 0 0 0
515 1 2 -3.4575608453055864e+00 -3.7222189997021418e+00 -7.2924361305686860e+00 0 0 0
445 1 2 -1.6159076036038811e+00 -2.7141831327773716e+00 -7.4910863408333848e+00 0 0 0
521 1 2 -1.9848931055241581e+00 -3.8983411793889271e+00 -7.8714309961666151e+00 0 0 0
511 1 2 -3.3832475509298154e+00 -1.6892830152181921e+00 -6.9202706736902728e+00 0 0 0
444 1 2 -1.3085244151246571e+00 -1.8183600966742504e+00 -7.4355420133891243e+00 0 0 0
482 1 2 -1.5621666102211447e+00 -1.6081545245604294e+00 -8.4018019978038510e+00 0 0 0
455 1 2 -1.3729007163990117e+00 -1.4122885598202679e+00 -9.4736747467053082e+00 0 0 0
512 1 2 -3.2625885976635565e+00 -2.5826767509073414e+00 -7.0488426305316141e+00 0 0 0
510 1 1 -2.4360837884577724e+00 -1.9315091650213561e+00 -7.0330288698134122e+00 0 0 0
522 1 2 -1.0368777700344387e+00 -3.7278501518773797e+00 -7.7763791933205955e+00 0 0 0
458 1 2 -1.1492711606353743e+00 -2.4026355737674900e+00 -8.9457046072349655e+00 0 0 0
457 1 2 -2.3533167598574961e-01 -2.5948388567294201e+00 -9.1987934110360552e+00 0 0 0
446 1 2 -8.0426429254086096e-01 -2.5638069250547648e+00 -7.9451644955225857e+00 0 0 0
424 1 1 -6.4711358129149854e-02 -3.4360803986915074e+00 -8.4926333229210336e+00 0 0 0
456 1 2 -4.7323286614618165e-01 -1.6950564097947194e+00 -9.3573803029331728e+00 0 0 0
447 1 2 1.0048065822308239e-01 -2.3787140232169137e+00 -8.1358174827358862e+00 0 0 0
423 1 2 -1.4937976634076336e-01 -3.3550781331164932e+00 -7.5094517518518549e+00 0 0 0
425 1 1 8.7460770919807662e-01 -3.1564680352201733e+00 -8.6938633268320693e+00 0 0 0
426 1 2 8.3410419630438581e-01 -3.2498747221109983e+00 -7.7611619874699951e+00 0 0 0
448 1 2 8.1240842564487181e-01 -1.9503793653035097e+00 -7.7072660987544133e+00 0 0 0
449 1 2 1.2409127359256933e+00 -2.1749431701059918e+00 -8.5348552837500886e+00 0 0 0
98 1 1 -2.0395681505242375e-01 -1.8888684230419941e+00 -7.2035667065345592e+00 0 0 0
450 1 1 5.1720882383568556e-01 -1.5654542654882708e+00 -8.6569823765944207e+00 0 0 0
483 1 2 -6.2845958838393001e-01 -1.5947050539546563e+00 -8.2876291248666316e+00 0 0 0
67 1 2 1.4362118568224393e+00 -4.0727289524711745e+00 -8.1950882355895303e+00 0 0 0
427 1 2 5.0046731028049707e-01 -2.7635284058567295e+00 -6.9600917031225960e+00 0 0 0
68 1 1 1.8027197564081834e+00 -3.1984585899102034e+00 -8.3165835333108280e+00 0 0 0
69 1 2 1.7470766027286870e+00 -2.5937479428742578e+00 -7.6545528007207215e+00 0 0 0
70 1 2 2.5708425729854412e+00 -2.1175637654650976e+00 -7.8407503493215414e+00 0 0 0
71 1 2 2.2041318682573130e+00 -1.8399541432010145e+00 -8.6790486019051745e+00 0 0 0
57 1 2 3.3337151736192969e+00 -3.8477807798098209e+00 -7.7285211666478029e+00 0 0 0
56 1 1 2.8357767642173015e+00 -3.1986650852626917e+00 -8.1337119346281330e+00 0 0 0
55 1 2 2.2683216072820835e+00 -3.5077056780358111e+00 -7.4405647790309812e+00 0 0 0
50 1 1 3.6010520701803905e+00 -2.1353360794495031e+00 -7.8902154816441294e+00 0 0 0
49 1 2 3.9507759484315019e+00 -2.9471639170608506e+00 -8.1516601639757802e+00 0 0 0
48 1 2 3.7978123385638489e+00 -2.9424492867585110e+00 -7.1984080653811660e+00 0 0 0
51 1 1 3.4692734013302524e+00 -1.9717426520887733e+00 -6.9318734140963798e+00 0 0 0
90 1 2 1.8113607993806611e+00 -1.4440269921273505e+00 -7.4800015355547371e+00 0 0 0
73 1 1 3.2852479313509013e+00 -1.4849167732877062e+00 -8.6957714048107349e+00 0 0 0
43 1 1 4.5997758118117362e+00 -1.7470628495690597e+00 -7.5925234338891245e+00 0 0 0
45 1 2 5.4997614436584650e+00 -1.3363299908207744e+00 -6.9698116293884853e+00 0 0 0
47 1 2 4.7486244042873240e+00 -2.8120585098626574e+00 -7.3129882685941192e+00 0 0 0
168 1 2 -6.1905640686966477e+00 -1.2348589471018201e+00 -7.1654287549793558e+00 0 0 0
555 1 1 -5.3110140564237254e+00 -1.2709008849878125e+00 -7.8636352359905102e+00 0 0 0
169 1 1 -5.8092035880932320e+00 -3.6809171494743848e-01 -7.5339737695063169e+00 0 0 0
563 1 2 -5.3563248337704987e+00 1.2781415402885583e+00 -7.5653262464770350e+00 0 0 0
556 1 1 -5.0771260348457652e+00 -5.9031535328102536e-01 -8.4348168649859332e+00 0 0 0
564 1 1 -5.2737936897358111e+00 4.5176212396604021e-01 -7.9564759266797704e+00 0 0 0
565 1 1 -4.3957898972461447e+00 2.9956704850407040e-01 -8.3392301229625883e+00 0 0 0
170 1 1 -6.1843170560973020e+00 5.6572564192546282e-01 -7.3488834552008084e+00 0 0 0
557 1 1 -4.7365016375262536e+00 -3.9129854460185870e-01 -7.5927168034072512e+00 0 0 0
566 1 2 -4.0155761213185022e+00 1.1996621895282371e+00 -8.3837025230890792e+00 0 0 0
562 1 2 -4.4877964052289778e+00 8.4940820002419226e-01 -7.3368387761418745e+00 0 0 0
464 1 2 -3.2743193368544796e+00 -1.2970103845641248e+00 -8.6953259714442783e+00 0 0 0
480 1 2 -2.2539463564288864e+00 -9.5294209145708608e-01 -8.8941374783743896e+00 0 0 0
481 1 1 -2.3513606423912421e+00 -1.2645092699651113e+00 -7.9821315396407586e+00 0 0 0
465 1 2 -3.9210672509201001e+00 -7.4562106894829716e-01 -8.1953431529424421e+00 0 0 0
466 1 1 -3.2336530572862805e+00 -8.4269688949268917e-01 -7.5721782357194911e+00 0 0 0
467 1 2 -2.9159747619268024e+00 -3.5171440174012952e-01 -8.3185136045529617e+00 0 0 0
468 1 1 -2.9742707615810189e+00 -2.6363322876629780e-01 -9.2469285530441763e+00 0 0 0
470 1 2 -2.9847324813691367e+00 7.4345998031711891e-01 -8.5358333674739981e+00 0 0 0
502 1 2 -3.6014475016589285e+00 1.0226738401744101e-01 -7.6729951223678006e+00 0 0 0
501 1 2 -2.6701565011437300e+00 1.4469307895445865e-01 -7.4290645714657222e+00 0 0 0
469 1 1 -3.6150228865353005e+00 4.2956178058817618e-01 -9.0586788323891412e+00 0 0 0
472 1 2 -2.5535846255254100e+00 7.1052572969253869e-01 -9.4722384522968763e+00 0 0 0
500 1 1 -1.8800469146810856e+00 -3.0469687978121274e-01 -7.7298983668870811e+00 0 0 0
471 1 1 -2.1207448303171867e+00 2.9065459156574869e-01 -8.6904153483430040e+00 0 0 0
473 1 1 -1.9017463939200101e+00 7.0986166992944660e-02 -9.7225358208931620e+00 0 0 0
499 1 2 -1.7347081956648380e+00 6.0124925354788283e-01 -7.4250739011334783e+00 0 0 0
503 1 2 -3.4128394608893418e+00 9.8766182963371674e-01 -7.4548691457954845e+00 0 0 0
491 1 2 -1.4117930211998169e+00 1.2914137864604411e+00 -8.2459445116775942e+00 0 0 0
493 1 2 -2.4516018253067751e+00 1.3253594207884591e+00 -7.7768074555498519e+00 0 0 0
479 1 1 -1.3664270705827848e+00 -5.6679964811628436e-01 -8.6563322297338843e+00 0 0 0
474 1 2 -1.3651802391492791e+00 6.9759426221109044e-01 -9.3329165002769017e+00 0 0 0
443 1 2 -1.6857834016946289e+00 -1.0590480635828545e+00 -7.0356281027386061e+00 0 0 0
451 1 2 3.7788498517170938e-01 -8.8362764900899671e-01 -9.2916357975329245e+00 0 0 0
453 1 2 -3.9066306385764343e-01 9.0900206068842929e-02 -9.2181571865467884e+00 0 0 0
475 1 2 -5.5175016174794222e-01 1.1151402769280099e+00 -9.0047100925878532e+00 0 0 0
454 1 1 -8.4704171634912473e-01 -6.0027104109642904e-01 -9.6904844620615211e+00 0 0 0
452 1 2 -3.4867629187919402e-01 -7.1285073263554455e-01 -8.7014138734536655e+00 0 0 0
478 1 2 -1.0512937962914541e+00 2.2923253571637911e-01 -8.2169451824716955e+00 0 0 0
484 1 2 -8.1965234182792612e-01 -8.5867259068822188e-01 -7.7327109597655577e+00 0 0 0
477 1 2 -1.9422804960464810e-01 -4.3460027488960908e-03 -7.9813999533012350e+00 0 0 0
476 1 2 1.6835062955801494e-01 7.1434137064674452e-01 -8.4898347962782523e+00 0 0 0
489 1 2 -6.9443855839113700e-01 9.0044875640485367e-01 -7.4918820050024264e+00 0 0 0
96 1 2 3.3774589704639080e-01 -9.3014499100436843e-01 -7.8450027766249457e+00 0 0 0
95 1 2 7.6781311920198492e-01 -2.7137642707831172e-01 -8.3319931605453501e+00 0 0 0
94 1 2 7.9188197335616262e-01 7.3577766189409796e-02 -9.1698639037208061e+00 0 0 0
487 1 2 6.1807459319589775e-01 -3.9505363525672389e-02 -7.2847873860158412e+00 0 0 0
488 1 2 2.8772731548572439e-01 8.8214880399454121e-01 -7.3676065391505716e+00 0 0 0
1393 1 2 1.3017087297299783e+00 1.1351388670477423e+00 -9.3900252676148686e+00 0 0 0
1394 1 2 1.3162380076700808e+00 7.5790639894854639e-01 -8.5256285961588976e+00 0 0 0
93 1 2 1.6185771084466767e+00 -3.7348155197802341e-01 -9.0294850909255135e+00 0 0 0
91 1 2 1.4351275868789473e+00 -1.1121793975142928e+00 -8.2975724873506049e+00 0 0 0
1396 1 2 1.4051393141907575e+00 8.2087862257304300e-01 -7.3072092847874561e+00 0 0 0
92 1 1 1.4617636393681137e+00 -1.2583088561120133e+00 -9.2022465527284094e+00 0 0 0
485 1 2 -8.7079225068030308e-01 -1.1235452576674265e-01 -7.1995564754509207e+00 0 0 0
97 1 2 -1.7788517426286437e-02 -9.3366866632878076e-01 -7.0032166438704895e+00 0 0 0
89 1 2 1.0931025940346444e+00 -9.9189279115435758e-01 -7.1420861671076894e+00 0 0 0
72 1 1 2.5726579007238031e+00 -1.1875255426774720e+00 -9.2807745067695979e+00 0 0 0
1399 1 2 1.7367934583830615e+00 -4.2306989393130198e-02 -7.8775562586297347e+00 0 0 0
1400 1 2 2.4240060667674723e+00 4.9504456024728949e-01 -8.2834558801703988e+00 0 0 0
1398 1 2 2.3051119570708845e+00 -3.8185250243991498e-01 -7.1296622782859407e+00 0 0 0
78 1 2 2.4977694704196503e+00 -8.0204326971628737e-01 -8.3008379356396116e+00 0 0 0
79 1 2 3.0859644639762496e+00 -1.2040093528178570e+00 -7.6621828214614816e+00 0 0 0
80 1 1 3.6950058462507465e+00 -7.7669603591443914e-01 -7.0510639276421863e+00 0 0 0
77 1 1 3.2253560329227366e+00 -2.9249316462389979e-01 -8.6920639429405497e+00 0 0 0
76 1 2 3.1641396636620582e+00 -4.3695590845903479e-02 -7.7665270459473073e+00 0 0 0
74 1 1 4.0187990347810620e+00 -1.0383688525806987e+00 -8.2791342119210380e+00 0 0 0
75 1 2 4.1291531383686921e+00 -1.1597838838552556e-01 -7.7410131256602135e+00 0 0 0
1408 1 2 3.6427413164024176e+00 7.6919990426407314e-01 -7.3027139039319700e+00 0 0 0
1407 1 1 3.4427122249101787e+00 8.5845139256291325e-01 -8.2228594250096059e+00 0 0 0
1395 1 2 1.7250325057641771e+00 1.4585558743214577e+00 -7.9949247952940432e+00 0 0 0
1401 1 1 2.1915434819662574e+00 6.0545187024649638e-01 -9.2234567926072604e+00 0 0 0
1359 1 2 2.5078783005468854e+00 6.6192333630310463e-01 -7.1612077985254095e+00 0 0 0
1409 1 2 4.5326622806362211e+00 1.0148429515690307e+00 -7.4969858318303118e+00 0 0 0
44 1 2 4.8941399969766772e+00 -8.5625055654254123e-01 -7.5696900342595770e+00 0 0 0
1432 1 2 5.2068393319240975e+00 9.7538646654919001e-02 -7.1411514178622477e+00 0 0 0
1433 1 1 6.0871455125063392e+00 -2.0658465530933595e-01 -6.9721740033367263e+00 0 0 0
723 1 1 -5.0377521485899406e+00 3.5084296294048438e+00 -7.2423715556097781e+00 0 0 0
724 1 1 -4.8901141896419187e+00 2.6003143100446384e+00 -7.5403834862999481e+00 0 0 0
567 1 1 -3.9786416807669638e+00 1.8231094986912919e+00 -7.6697453158997897e+00 0 0 0
568 1 2 -3.2856324560972929e+00 2.0597713322728182e+00 -8.2644937315698961e+00 0 0 0
569 1 2 -3.9470802869256905e+00 2.7205944624756766e+00 -8.3620347949738552e+00 0 0 0
495 1 2 -2.9446047252514638e+00 2.1829944968321771e+00 -7.3291970446793968e+00 0 0 0
492 1 1 -2.1962348291621727e+00 1.5847622214489590e+00 -8.6931861163789055e+00 0 0 0
494 1 2 -2.1005103226306945e+00 2.2250888676635476e+00 -7.8185725605293994e+00 0 0 0
580 1 2 -2.7430514371658377e+00 3.0688394340566800e+00 -8.0732591447958288e+00 0 0 0
586 1 1 -1.9717379298395317e+00 2.6701598811886056e+00 -8.6965010617673428e+00 0 0 0
585 1 2 -1.5705458784287119e+00 3.1142977346099929e+00 -7.9488652850155006e+00 0 0 0
579 1 2 -2.3221870197321572e+00 3.8148722991435715e+00 -8.5013373671506702e+00 0 0 0
570 1 1 -3.6881639813874583e+00 3.1155799870470293e+00 -7.5598334149025472e+00 0 0 0
581 1 2 -2.8358340724993156e+00 3.7703318211774945e+00 -7.4883282542439522e+00 0 0 0
578 1 1 -1.6820162757279686e+00 4.1826793072548689e+00 -7.9080162815433477e+00 0 0 0
582 1 2 -2.2972050314775081e+00 3.0383504021943981e+00 -7.1053985242615534e+00 0 0 0
583 1 2 -1.4164699489269941e+00 2.6692071864518323e+00 -7.0400938174574179e+00 0 0 0
584 1 1 -9.8447853621041315e-01 3.5137114497994610e+00 -7.3679577813448587e+00 0 0 0
490 1 2 -1.1008144039455836e+00 1.7526186406817357e+00 -7.4642355809225709e+00 0 0 0
587 1 2 -1.1370639056980718e+00 2.2415358538144305e+00 -8.6643306485439116e+00 0 0 0
588 1 1 -2.3113878479276398e-01 2.2890526645031057e+00 -8.7326815035207801e+00 0 0 0
589 1 2 -2.3457821216296468e-01 1.6242834028879134e+00 -8.0752033751926735e+00 0 0 0
590 1 2 -8.6687045270878560e-02 1.8463737850433333e+00 -7.1324759218215315e+00 0 0 0
1389 1 2 -5.8305850874017529e-01 2.6002366982833784e+00 -7.7932669757283195e+00 0 0 0
1390 1 2 3.8789981984340133e-01 2.4852108539558104e+00 -7.8787898689113725e+00 0 0 0
1388 1 2 -2.0540313850221389e-01 3.4056514658395907e+00 -8.1521660064642187e+00 0 0 0
1392 1 1 5.5228126313923886e-01 1.6022531186529818e+00 -9.0103186558715489e+00 0 0 0
1391 1 2 7.2979106089422729e-01 1.6397328777587676e+00 -8.0259558771717341e+00 0 0 0
1367 1 2 8.0805720104618506e-01 2.6274816217546739e+00 -6.9227914194476341e+00 0 0 0
1369 1 2 1.2109975248966489e+00 2.4652595090277862e+00 -8.5967438355087307e+00 0 0 0
1387 1 1 2.8686346959005588e-01 3.3668231837852236e+00 -7.3257429926124278e+00 0 0 0
1370 1 1 9.8524969008076002e-01 3.2823582452325626e+00 -8.1462975343546109e+00 0 0 0
1368 1 1 1.3665174081743572e+00 2.3479039737399194e+00 -7.6532837030486158e+00 0 0 0
1371 1 1 5.6616268612947329e-01 4.2246507762677457e+00 -8.0067715349659920e+00 0 0 0
1376 1 2 1.1934627458569540e+00 3.6636669347029516e+00 -7.0317206961700842e+00 0 0 0
1402 1 2 2.3501565588777971e+00 1.4729494022723395e+00 -8.9034443108362780e+00 0 0 0
1353 1 2 1.9763359798823965e+00 3.1788331325442734e+00 -7.5576080137307695e+00 0 0 0
1352 1 1 2.6404947380080568e+00 3.8076123381102445e+00 -7.6873257758452000e+00 0 0 0
1403 1 2 2.4248489351125841e+00 2.3617321526818027e+00 -8.5179055122771583e+00 0 0 0
1406 1 2 2.9700264145020903e+00 1.5493988286310212e+00 -7.8202127476877541e+00 0 0 0
1404 1 2 3.2341026983941474e+00 2.6782310680703647e+00 -8.1189461693322986e+00 0 0 0
1405 1 1 3.4171818587178255e+00 1.8795258184539989e+00 -8.6518563408268214e+00 0 0 0
1411 1 2 4.1073196717094831e+00 2.0464216600803824e+00 -7.5711044391981526e+00 0 0 0
1356 1 2 2.5286386105224885e+00 2.3194850182988893e+00 -7.3023586388948472e+00 0 0 0
1351 1 2 3.0471941598352599e+00 3.3157903413898180e+00 -6.9908694341371689e+00 0 0 0
1468 1 2 4.1762485115444639e+00 3.1640939898332037e+00 -7.0772972331839075e+00 0 0 0
636 1 2 3.7521663706937907e+00 4.1991127752494402e+00 -7.1371629321459658e+00 0 0 0
1410 1 1 4.9265880613017119e+00 1.8290516877486567e+00 -7.0724385561139753e+00 0 0 0
577 1 2 -2.4909194981077962e+00 4.6921743958974584e+00 -7.8312739741996893e+00 0 0 0
598 1 1 -1.7777605497268674e+00 5.4826312360273963e+00 -7.4731162663911803e+00 0 0 0
576 1 2 -3.1388599599718425e+00 4.8422567495531075e+00 -7.1389666288598521e+00 0 0 0
599 1 2 -1.0958560759509095e+00 4.8505961045695027e+00 -7.2399251171907952e+00 0 0 0
1372 1 2 -1.1792596562877666e-01 4.4099559513288975e+00 -7.3974237722044656e+00 0 0 0
1375 1 1 1.4562731115461356e+00 4.5253698303606384e+00 -7.3142631972484864e+00 0 0 0
1373 1 2 -1.3415532810416161e-01 5.3695075807210371e+00 -7.1414095163330256e+00 0 0 0
645 1 2 -8.8751711573451642e-01 6.3809237611493383e+00 -7.3009251080088351e+00 0 0 0
1374 1 2 6.6538580312656825e-01 4.7991509144555859e+00 -6.9165015779774919e+00 0 0 0
638 1 2 2.3261604292950802e+00 4.9309184114853633e+00 -7.0140350128271427e+00 0 0 0
637 1 2 3.1735193229862411e+00 4.9594916142272849e+00 -7.4112453502905522e+00 0 0 0
335 1 2 -2.4854702680972203e+00 -7.8895118529354571e+00 -4.9825652426910754e+00 0 0 0
336 1 2 -3.0418862987187723e+00 -7.1737994445205491e+00 -4.8291922088423416e+00 0 0 0
337 1 1 -3.5408804289625424e+00 -7.0411660583927178e+00 -5.6412881982953893e+00 0 0 0
330 1 1 -1.7782389557155622e+00 -7.3822037616604019e+00 -6.4955827295367579e+00 0 0 0
327 1 1 -1.9116390671485011e+00 -7.3232067236573046e+00 -4.2741463130174946e+00 0 0 0
334 1 2 -1.6351338978893228e+00 -8.3009599947889381e+00 -4.7950247773936789e+00 0 0 0
333 1 2 -1.5601711789547121e+00 -7.6096587751593061e+00 -5.4667707739814277e+00 0 0 0
329 1 1 -2.3891183540841405e+00 -7.0085761875474981e+00 -5.7582819258894640e+00 0 0 0
2825 1 1 -4.7788011501821898e-01 -7.7211102661811868e+00 -4.9851362461783459e+00 0 0 0
2827 1 2 8.7592508231320854e-01 -7.1666152437335917e+00 -4.3374440545838366e+00 0 0 0
2809 1 2 1.6168723354281464e-01 -7.4645848971144497e+00 -5.9031400731156136e+00 0 0 0
2808 1 1 1.0721505736365953e+00 -7.3379133450640239e+00 -5.4911859320759593e+00 0 0 0
2826 1 1 4.1851020456061799e-01 -7.8449823602552406e+00 -4.6798345055555188e+00 0 0 0
2828 1 2 1.4396869726946759e+00 -7.9111148102699458e+00 -4.6565287586510360e+00 0 0 0
332 1 2 -8.4151342614370628e-01 -7.1556004784644891e+00 -5.9086711201988864e+00 0 0 0
2824 1 2 -5.1057079523766778e-02 -6.8739164552048955e+00 -5.0072594560410026e+00 0 0 0
2666 1 1 2.3125771000486428e+00 -7.2188779925963829e+00 -5.4773930678046456e+00 0 0 0
2667 1 2 1.8632062258281294e+00 -6.9149247293797798e+00 -4.7469712142124383e+00 0 0 0
2665 1 2 3.0161523656023768e+00 -6.9879953735830620e+00 -4.7396462723886632e+00 0 0 0
2829 1 2 2.4347150055213742e+00 -7.8749856240805887e+00 -4.3755972550585760e+00 0 0 0
3678 1 1 -7.2208054539510345e+00 -4.6747694051786333e+00 -4.1221576117277836e+00 0 0 0
544 1 1 -4.7606522630525152e+00 -4.8028994864727679e+00 -6.5889351933842173e+00 0 0 0
3809 1 2 -5.1745105476663618e+00 -6.3042807086069619e+00 -4.9309639575846020e+00 0 0 0
3293 1 2 -5.3052985875141170e+00 -5.5896751296210585e+00 -5.8592285154355945e+00 0 0 0
3295 1 2 -4.8307465395546068e+00 -5.3080255191488162e+00 -4.9440915407691124e+00 0 0 0
3294 1 1 -5.6522809348158001e+00 -4.9862426296086326e+00 -5.1628562389938795e+00 0 0 0
3290 1 1 -4.0584701353462860e+00 -6.6733218219259092e+00 -4.8035308291115095e+00 0 0 0
3679 1 1 -6.3376649410123598e+00 -4.6653442896483517e+00 -4.3819763957286773e+00 0 0 0
545 1 2 -4.7686732168787671e+00 -4.4467841742027714e+00 -5.6911739737751859e+00 0 0 0
3291 1 2 -4.0337504445563699e+00 -5.9374649342502570e+00 -5.3983323988667733e+00 0 0 0
3292 1 2 -4.4556894497380428e+00 -5.7834604078759835e+00 -6.2720035023728711e+00 0 0 0
162 1 2 -5.7870301630082075e+00 -4.3884636461475592e+00 -6.2428383172496007e+00 0 0 0
546 1 1 -4.9079256410645620e+00 -4.2715251004630188e+00 -4.7849941285609310e+00 0 0 0
3810 1 2 -5.9009627260448063e+00 -5.7437410753023848e+00 -4.3981829675697144e+00 0 0 0
3801 1 2 -4.0677000443434856e+00 -5.6453417881086319e+00 -4.1956766482771837e+00 0 0 0
528 1 2 -3.9932201713758304e+00 -4.0897516458575316e+00 -6.4682187662897572e+00 0 0 0
534 1 2 -2.7085631234397667e+00 -6.6402475602698994e+00 -6.7263138073538924e+00 0 0 0
529 1 2 -3.6725370618189093e+00 -4.8202719816309108e+00 -5.9604483591538981e+00 0 0 0
3296 1 2 -3.9680328994129090e+00 -4.8920084743289038e+00 -4.9538230614868670e+00 0 0 0
339 1 2 -3.0931315470075256e+00 -5.3027330030947004e+00 -5.2597781404862687e+00 0 0 0
532 1 2 -2.6496436121375879e+00 -5.0246283651977901e+00 -6.3774964298708445e+00 0 0 0
338 1 2 -3.0985631349952398e+00 -6.2557370728789419e+00 -5.2534483405849670e+00 0 0 0
535 1 1 -3.1509547848815345e+00 -5.9387209808808947e+00 -6.2839228910923497e+00 0 0 0
340 1 2 -2.3160348106978668e+00 -5.4834076329862596e+00 -4.8064281679033503e+00 0 0 0
145 1 2 -1.7204051988084319e+00 -4.9842952053798228e+00 -5.4691644829757688e+00 0 0 0
146 1 2 -2.2102629526405426e+00 -5.8408943530372035e+00 -5.8245560205014364e+00 0 0 0
147 1 2 -1.4835323319280300e+00 -5.5098615884389055e+00 -6.4339592486809751e+00 0 0 0
328 1 2 -2.0627862834162571e+00 -6.5933964082821159e+00 -4.9259433178869587e+00 0 0 0
3297 1 2 -3.2199767101001115e+00 -4.5383610384575377e+00 -4.4610543858270120e+00 0 0 0
341 1 2 -2.2006035450079762e+00 -4.6096054023127913e+00 -4.5298859234688855e+00 0 0 0
531 1 2 -2.5824017522162790e+00 -4.4373401369638925e+00 -5.5678951808642267e+00 0 0 0
331 1 2 -1.5050015884874899e+00 -6.5703645058135676e+00 -6.0759871620715025e+00 0 0 0
2815 1 2 -1.2339208115292626e+00 -5.8734532924432461e+00 -5.2156793457825579e+00 0 0 0
149 1 2 -1.7514690665960129e+00 -4.3137501478061058e+00 -6.2559515513373176e+00 0 0 0
139 1 1 6.4070706855245396e-01 -5.8228497109090815e+00 -6.7267663627542094e+00 0 0 0
2813 1 2 -5.9528644662543251e-01 -6.0293543594454659e+00 -6.8853847130770802e+00 0 0 0
2823 1 2 -1.0064990726584904e+00 -6.7983832977208829e+00 -4.8093705018264163e+00 0 0 0
2810 1 1 -4.1941384633987382e-02 -6.8263746059149559e+00 -6.5914015137275452e+00 0 0 0
140 1 2 -3.8991116693756774e-02 -5.3276448638857588e+00 -6.3400422501140445e+00 0 0 0
2814 1 2 -5.5957332266452942e-01 -6.1237387322823622e+00 -5.9115129163207545e+00 0 0 0
2822 1 2 -6.1547883684941462e-01 -6.3985107951416786e+00 -4.1058142023847424e+00 0 0 0
2816 1 2 -1.0271520213640963e+00 -5.3926616822990763e+00 -4.4333401795656400e+00 0 0 0
2817 1 2 -1.8497775536718880e-01 -4.8994857014681124e+00 -4.5516524283636866e+00 0 0 0
2804 1 2 4.5472245965183750e-01 -6.1973855219444518e+00 -5.7274344049850150e+00 0 0 0
141 1 2 3.1253677661416474e-01 -4.9435616557821014e+00 -5.5311009534715341e+00 0 0 0
2818 1 2 -1.5170856612767908e-01 -5.8191946647739918e+00 -4.8332898142934493e+00 0 0 0
21 1 2 8.9758220696903979e-01 -5.0427695434658881e+00 -4.6737527063050486e+00 0 0 0
2803 1 2 1.0426620824552788e+00 -6.2513557454833801e+00 -4.9444829946529341e+00 0 0 0
144 1 2 -8.1954079866591667e-01 -4.8660773134899484e+00 -5.4887616920951805e+00 0 0 0
148 1 2 -9.5845156313689750e-01 -4.7165708993479241e+00 -6.5785441928879607e+00 0 0 0
2881 1 2 -1.1347810818891311e+00 -4.3624358000829035e+00 -4.5435089005306253e+00 0 0 0
61 1 2 9.6570383685599914e-01 -4.5744703579871517e+00 -6.2996752134486265e+00 0 0 0
2805 1 2 1.2598232797758604e+00 -5.5933482822202452e+00 -5.7036386112634734e+00 0 0 0
2807 1 2 1.2972181839966905e+00 -6.7150546470496746e+00 -6.1628938374133453e+00 0 0 0
22 1 1 1.5319722451961164e+00 -4.5808328434247985e+00 -5.3427040131081256e+00 0 0 0
142 1 2 -1.1115319009319548e-01 -4.3139509898588768e+00 -6.0536170344370603e+00 0 0 0
132 1 2 3.6122864484077888e+00 -4.3828626421206751e+00 -6.8468301319770832e+00 0 0 0
2802 1 2 1.7471613906338381e+00 -5.6424193218407463e+00 -4.7079746791038612e+00 0 0 0
2806 1 2 2.0367379759661492e+00 -6.2067852519841624e+00 -5.6259433733879680e+00 0 0 0
136 1 1 2.0263090719182961e+00 -5.0621432234479622e+00 -6.1921070416149675e+00 0 0 0
135 1 2 2.6012599583456821e+00 -5.1595407014938317e+00 -5.3864863415755933e+00 0 0 0
2661 1 1 2.2232009731790727e+00 -4.7611337214680747e+00 -4.3310380504064083e+00 0 0 0
2663 1 1 3.5159276237679600e+00 -5.5066309540354936e+00 -4.7687393842236698e+00 0 0 0
130 1 2 2.8169119126659647e+00 -5.8484684320676390e+00 -6.4399950550599412e+00 0 0 0
129 1 2 3.3440567050467735e+00 -6.4851035926683167e+00 -5.9396402045856291e+00 0 0 0
2662 1 2 3.1646033226100827e+00 -4.6873223612774373e+00 -4.4218607812367647e+00 0 0 0
2664 1 2 2.7844869064931617e+00 -6.0958335992065278e+00 -4.9545173404619032e+00 0 0 0
33 1 2 4.3305657940985176e+00 -4.4196325177949340e+00 -5.9809818982798104e+00 0 0 0
134 1 2 2.5567877576255631e+00 -4.1997485607994678e+00 -5.2105577970865564e+00 0 0 0
32 1 2 3.7239889369509234e+00 -4.6019099216786596e+00 -5.2920993348771095e+00 0 0 0
128 1 2 3.7503261930353444e+00 -5.6539977651970492e+00 -5.7788197529412617e+00 0 0 0
133 1 1 3.0100663324586692e+00 -4.4549504566838962e+00 -6.0423991138744535e+00 0 0 0
2454 1 2 4.0611905869750933e+00 -6.4565104303076710e+00 -4.7619120400348782e+00 0 0 0
125 1 2 4.1378593644857746e+00 -4.2605654639508677e+00 -4.0987877108827835e+00 0 0 0
127 1 1 4.5486686299170520e+00 -5.4064786537898701e+00 -5.3808563767533357e+00 0 0 0
2457 1 1 5.7110069686725780e+00 -5.3812153717940063e+00 -5.0307318668149463e+00 0 0 0
126 1 2 4.6555580869566828e+00 -4.7554131769317305e+00 -4.7331210168704470e+00 0 0 0
34 1 1 5.2138963747092362e+00 -4.9037154444360187e+00 -6.1149146897367679e+00 0 0 0
2458 1 2 5.6187446147029734e+00 -4.7375567286310547e+00 -4.3417194570797477e+00 0 0 0
35 1 2 5.3088382555339972e+00 -4.1642891857748436e+00 -5.4600427901740707e+00 0 0 0
2358 1 1 6.5922338741855810e+00 -4.3104495269240841e+00 -5.2447174664988445e+00 0 0 0
2455 1 1 4.7200460859090700e+00 -5.8937859214981785e+00 -4.3571490539342310e+00 0 0 0
2456 1 1 5.6270751485376058e+00 -5.7649479721731733e+00 -4.1380080165605637e+00 0 0 0
2459 1 2 6.5939700851171450e+00 -5.0081491409095378e+00 -4.1132333854542145e+00 0 0 0
3674 1 2 -7.1980631306840896e+00 -2.7455999552293964e+00 -5.0215461097473897e+00 0 0 0
3456 1 2 -7.5715659053231175e+00 -1.3500177938749314e+00 -5.4774932192799008e+00 0 0 0
3453 1 2 -7.5867712741894602e+00 -1.8429025936533163e+00 -4.5403247649978535e+00 0 0 0
3676 1 2 -7.8833470389876927e+00 -3.7981300881902036e+00 -4.2096888331776867e+00 0 0 0
3675 1 2 -8.0448096267982869e+00 -3.0457356839304102e+00 -4.7872119113582343e+00 0 0 0
3457 1 2 -6.7300109011993499e+00 -1.7368128664181575e+00 -5.1738132447064684e+00 0 0 0
163 1 2 -6.2802244261237883e+00 -3.7015536757104397e+00 -6.6658724304725654e+00 0 0 0
165 1 2 -6.5034215734374090e+00 -2.5057772834862249e+00 -5.8395686844301631e+00 0 0 0
164 1 2 -6.5423403756097338e+00 -3.4725375495767543e+00 -5.7345207697055542e+00 0 0 0
549 1 2 -5.0758251207627589e+00 -3.6513307549476068e+00 -6.3814296849966876e+00 0 0 0
161 1 2 -5.6597760103960102e+00 -3.8894753475530335e+00 -5.4052869660040264e+00 0 0 0
160 1 2 -5.4674323564017016e+00 -2.9811254438453112e+00 -5.6575754834913656e+00 0 0 0
159 1 2 -5.0867223499875376e+00 -2.2555447454799826e+00 -6.0789671989957341e+00 0 0 0
3682 1 2 -6.1351946324051365e+00 -2.8637675486235583e+00 -4.8402383491981853e+00 0 0 0
3681 1 2 -5.3528955086839103e+00 -3.2681474835391873e+00 -4.5662469599640119e+00 0 0 0
3683 1 2 -6.5467085404278791e+00 -3.6489150739684661e+00 -4.6115260168252687e+00 0 0 0
548 1 2 -4.4055620532030986e+00 -3.0274619077400597e+00 -6.0685219440728382e+00 0 0 0
158 1 2 -4.6676448043782095e+00 -2.3615677081616844e+00 -5.2482256173336097e+00 0 0 0
547 1 2 -4.5446582345996571e+00 -3.5027256732832597e+00 -5.2297950113011362e+00 0 0 0
157 1 2 -4.3560556593641060e+00 -2.7568544216324824e+00 -4.4790949110604537e+00 0 0 0
166 1 1 -5.9807193583413021e+00 -2.6459364184941729e+00 -6.6371973944482825e+00 0 0 0
3458 1 2 -5.7699291512040656e+00 -1.9726220129900953e+00 -5.2843447295032417e+00 0 0 0
3459 1 2 -6.0039978054448806e+00 -1.6796685722781393e+00 -6.1248189599768610e+00 0 0 0
3465 1 2 -5.0375813102817624e+00 -1.4185979223131857e+00 -4.7909637323362331e+00 0 0 0