LAMMPS data file via write_data, version 16 Mar 2018, timestep = 0

4000 atoms
2 atom types
3999 bonds
1 bond types

-9.8829574507812534e+00 9.1268338581334856e+00 xlo xhi
-9.5386197602262435e+00 9.4226389552048673e+00 ylo yhi
-9.6066234441517206e+00 9.2389271663822665e+00 zlo zhi

Masses

1 1
2 1

Atoms # bond

3719 1 2 -3.3950816842680287e+00 -4.1950354955009148e+00 -7.3152637638510578e+00 0 0 0
3718 1 2 -2.6538756192612292e+00 -4.6852990707086803e+00 -7.4988672999584338e+00 0 0 0
3713 1 1 -1.2591807077466426e+00 -4.9275870525235730e+00 -7.4007319013156847e+00 0 0 0
3593 1 2 -4.5677061563847809e-01 -4.3101477174378457e+00 -7.7630932688987411e+00 0 0 0
3592 1 1 3.4625197983371281e-01 -4.5483899764463516e+00 -8.1240828643835687e+00 0 0 0
3712 1 1 -1.1009886990571875e+00 -5.8679160269088628e+00 -7.2942475564308955e+00 0 0 0
3589 1 2 3.5066416720939797e-01 -4.4217565590443062e+00 -7.0388111626125296e+00 0 0 0
3709 1 2 -1.3943468577030649e-01 -5.4484560623157066e+00 -7.3658027956581718e+00 0 0 0
3708 1 2 7.1905504669393092e-02 -6.2953986932981607e+00 -6.9450031595420185e+00 0 0 0
3660 1 1 1.4469327633232123e+00 -4.4855378152373628e+00 -7.7904836937085822e+00 0 0 0
3661 1 2 2.0370595299849850e+00 -4.8811235241369566e+00 -7.1950734805393095e+00 0 0 0
3472 1 2 1.0199907645575745e+00 -5.2883576834262289e+00 -7.0144724017540021e+00 0 0 0
3473 1 1 1.2999261829991982e+00 -6.1200817312868256e+00 -7.5094801108673019e+00 0 0 0
3665 1 1 2.9174126345163001e+00 -5.6178406187458840e+00 -7.0389902476522170e+00 0 0 0
3236 1 2 3.7754500298036096e+00 -4.4496557440883215e+00 -7.2704893317854840e+00 0 0 0
3238 1 1 4.8757774649389356e+00 -4.6438102169014810e+00 -6.9724214935965803e+00 0 0 0
1253 1 2 -4.5505314168047670e+00 -1.5944929701987716e+00 -7.0542486737497097e+00 0 0 0
1270 1 1 -5.5394477674240541e+00 -2.2304647922845917e+00 -7.1552780471249307e+00 0 0 0
3598 1 2 -1.9610565812080365e+00 -3.3301235233650970e+00 -8.6155824130095375e+00 0 0 0
3601 1 1 -2.3485684776812841e+00 -1.9006154040078180e+00 -8.6144357884254994e+00 0 0 0
3597 1 2 -2.8036670053466817e+00 -3.4897287575937743e+00 -8.0733089755501677e+00 0 0 0
3603 1 1 -2.7569958460747501e+00 -2.5397285973251211e+00 -7.3377530008479859e+00 0 0 0
1832 1 1 -3.5503552283202406e+00 -1.8391075340741172e+00 -7.5428687275997186e+00 0 0 0
3602 1 2 -2.9764742722482507e+00 -2.5182534196078552e+00 -8.3302899188362254e+00 0 0 0
3600 1 1 -1.8678532798418526e+00 -2.2235601605237645e+00 -7.8081234205860062e+00 0 0 0
1255 1 2 -3.6725649648592920e+00 -2.9835215201324927e+00 -7.2769959138410636e+00 0 0 0
3596 1 1 -2.0883188903353762e+00 -3.2846261527038232e+00 -7.5357283300875393e+00 0 0 0
3594 1 1 -8.6531662770470807e-01 -3.6911757550251854e+00 -8.4159007690823380e+00 0 0 0
3595 1 2 -1.6065097208778614e+00 -4.0379745568422347e+00 -7.8824492851194767e+00 0 0 0
3599 1 1 -1.3034835961714848e+00 -2.6021072684386755e+00 -8.5420448344677844e+00 0 0 0
3591 1 2 1.9485903752844957e-01 -3.6445580721182189e+00 -8.4911161979271483e+00 0 0 0
3629 1 2 -1.1418005461668437e+00 -1.4885922218103931e+00 -8.5230067058822545e+00 0 0 0
3590 1 2 3.1784356671334918e-01 -3.6600943420330698e+00 -7.5465643073683841e+00 0 0 0
3463 1 2 -2.0281888030986203e-01 -2.7821289253249004e+00 -7.9216261675645825e+00 0 0 0
3631 1 1 -8.0149514393484354e-03 -2.2522536734137879e+00 -8.9702822381624507e+00 0 0 0
3630 1 2 -5.7052718109270317e-01 -1.5895772954366170e+00 -9.3298247172426834e+00 0 0 0
3632 1 1 9.4394101835833388e-01 -2.1145591349184287e+00 -8.9092348044510743e+00 0 0 0
3628 1 2 -2.0176079708385217e-01 -1.5981599480293909e+00 -8.2697639805390981e+00 0 0 0
3633 1 2 8.5537268426413438e-01 -2.6558517296525337e+00 -8.0970518822493229e+00 0 0 0
3460 1 2 -8.0428212618263561e-01 -1.9046459468610586e+00 -7.5011545424292567e+00 0 0 0
3627 1 2 3.5616129142516351e-01 -1.8781714815501507e+00 -7.4664991459217385e+00 0 0 0
3462 1 1 -1.0085419610815638e+00 -2.9644729731308748e+00 -7.5942254101696420e+00 0 0 0
3465 1 2 8.5507889216131172e-01 -2.7063268443105741e+00 -7.0447918884065297e+00 0 0 0
3464 1 2 -8.7197930689171296e-02 -2.7391046451174179e+00 -6.9613153208482057e+00 0 0 0
3461 1 1 -1.3194236012414062e+00 -2.4783535469796587e+00 -6.9255985489668683e+00 0 0 0
3659 1 2 1.3371859175619691e+00 -3.6660660092060304e+00 -8.2180373187208797e+00 0 0 0
3650 1 2 2.6279352956303104e+00 -4.0147848945348485e+00 -7.5440174361363512e+00 0 0 0
3651 1 2 2.5869140006170657e+00 -3.5183602111941332e+00 -8.3677989453685289e+00 0 0 0
3652 1 2 2.3124054739891169e+00 -2.8048413870422908e+00 -9.0493798503443568e+00 0 0 0
3634 1 1 1.6392874248411466e+00 -2.0778750080267394e+00 -8.0845059235509371e+00 0 0 0
3653 1 1 2.2013108490271467e+00 -1.8604083189447544e+00 -9.0311999545776693e+00 0 0 0
3655 1 2 3.4912202246858723e+00 -2.5495063058607115e+00 -8.4904298338084097e+00 0 0 0
3654 1 1 3.0634377765228331e+00 -1.6484257047736617e+00 -8.7787289377635762e+00 0 0 0
3656 1 1 2.6338338954791620e+00 -2.4447286492305409e+00 -8.1142366090461042e+00 0 0 0
3657 1 2 2.6935912916101423e+00 -2.9516134306893740e+00 -7.3547293217165794e+00 0 0 0
3640 1 1 3.1601215740254718e+00 -1.5632823279897736e+00 -7.7105370040493426e+00 0 0 0
3645 1 1 3.5676126314668322e+00 -2.4628456962935310e+00 -7.4024230010247507e+00 0 0 0
3658 1 2 1.8257136263007514e+00 -3.1001216111374110e+00 -7.6609163468787589e+00 0 0 0
3644 1 2 3.6400517052735104e+00 -3.3644752832865747e+00 -7.6718612421887498e+00 0 0 0
3637 1 2 1.4326444102332387e+00 -1.8960596745115650e+00 -7.0164500753936956e+00 0 0 0
3639 1 2 2.6185596019780704e+00 -1.9039257070492484e+00 -7.0126979504019840e+00 0 0 0
3641 1 1 4.0958458722213402e+00 -1.6310549163596793e+00 -7.9481914809949483e+00 0 0 0
3643 1 1 4.5063735694370655e+00 -2.8192014532560608e+00 -7.8583386493060079e+00 0 0 0
3642 1 1 4.9967714618347552e+00 -1.9986153136075042e+00 -7.6412235927500589e+00 0 0 0
3237 1 1 4.3643665709526021e+00 -3.7631768762248980e+00 -7.0001131388753741e+00 0 0 0
2861 1 1 5.4484168712948016e+00 -2.8732460015408354e+00 -7.2022195545269261e+00 0 0 0
2862 1 1 6.0293994241459883e+00 -2.1161203988147470e+00 -7.2743482660763448e+00 0 0 0
1271 1 2 -5.5677294275737426e+00 -1.3036460677251536e+00 -6.9495247035277927e+00 0 0 0
1251 1 2 -4.7308282917103828e+00 -1.3047039069692859e-01 -7.9128956394954599e+00 0 0 0
1279 1 2 -5.2519065185206824e+00 8.2064456356421844e-01 -7.4458234531166472e+00 0 0 0
1278 1 1 -5.4626952231147552e+00 -6.4777997409758495e-02 -7.0872677236606920e+00 0 0 0
1833 1 2 -2.8063920984582635e+00 -1.2795154667807700e+00 -7.2447494707281432e+00 0 0 0
1252 1 1 -4.3048561602713296e+00 -9.5192699545518566e-01 -7.6954570525125927e+00 0 0 0
1813 1 2 -4.0928917283096844e+00 8.3556997437857161e-01 -7.8999081182448210e+00 0 0 0
1817 1 1 -2.7030495019240957e+00 -7.2922570862464575e-01 -8.8749910217500982e+00 0 0 0
1818 1 2 -2.1231210359955397e+00 -8.7435617998979853e-01 -8.0341301315289346e+00 0 0 0
1815 1 1 -3.3074352338986790e+00 1.7255064263888269e-02 -8.1593311303177547e+00 0 0 0
1814 1 2 -3.4235818708528378e+00 8.8572317408220902e-01 -8.6363919105677471e+00 0 0 0
1819 1 2 -2.3835717873895321e+00 -3.2602070909455730e-02 -7.8799783174052171e+00 0 0 0
1820 1 1 -2.3334215037590877e+00 2.9580909909903053e-01 -8.8448918531336762e+00 0 0 0
1816 1 1 -3.3096970160799071e+00 -9.5328673932756336e-01 -8.0758013432865372e+00 0 0 0
1828 1 2 -3.1253648870343707e+00 7.1554340386587956e-01 -7.3852032320534340e+00 0 0 0
1827 1 1 -2.4859119337716939e+00 1.0357773671372592e+00 -8.0208719897974206e+00 0 0 0
1829 1 2 -3.2361903274982962e+00 -2.5556960791952771e-01 -7.1550232033609475e+00 0 0 0
1250 1 2 -4.1812289487966812e+00 9.8242111432850387e-02 -7.1468265333995555e+00 0 0 0
1826 1 2 -1.9939669069787833e+00 8.2564719028627354e-01 -7.2274223490447733e+00 0 0 0
3388 1 2 4.7224286178396940e-01 -1.2295760373869520e+00 -9.3556936778123898e+00 0 0 0
1821 1 2 -1.4969669372092020e+00 5.6936991885640420e-01 -9.0918720544470482e+00 0 0 0
3459 1 2 -1.5424218533839535e+00 -1.2765447776424144e+00 -7.2520129492731291e+00 0 0 0
1823 1 1 -1.6581423057274283e+00 -7.2321544346660072e-01 -9.1284681393539948e+00 0 0 0
1822 1 2 -1.0004083374861408e+00 -2.0101561040064206e-01 -9.5292677011490152e+00 0 0 0
1825 1 2 -1.4951733373755813e+00 6.3048537653968018e-01 -8.0624788151810574e+00 0 0 0
3387 1 2 2.8297494557838349e-01 -2.9418440672285223e-01 -9.4670150122836585e+00 0 0 0
3636 1 2 9.6950454110353657e-01 -1.0463030056383704e+00 -7.2384706555467995e+00 0 0 0
3458 1 2 -8.2143604432734041e-01 -7.9806159695295653e-01 -7.6831984116070249e+00 0 0 0
3451 1 2 -4.7593969578071882e-01 -5.8234988545247657e-01 -8.6764222810177269e+00 0 0 0
1824 1 2 -1.4059221930878909e+00 -2.2781108241476067e-01 -8.3794109093326998e+00 0 0 0
3450 1 2 2.7455668550852835e-01 -6.7140448083421345e-01 -8.0942657646249341e+00 0 0 0
3453 1 2 -5.0209350328607771e-01 2.2776532653085180e-01 -7.8842409703487952e+00 0 0 0
3452 1 2 -5.3462877325880165e-01 3.9625984886050158e-01 -8.8121560653838671e+00 0 0 0
3385 1 2 5.5222166104526571e-01 3.6710295384128977e-01 -8.4564967680831220e+00 0 0 0
3036 1 2 4.4387146640231578e-01 1.0651919392791573e+00 -7.6285882000723788e+00 0 0 0
3454 1 2 -8.7118261416785592e-01 7.8998375827214751e-01 -7.1970908748423597e+00 0 0 0
3380 1 2 -3.9787115287743174e-01 1.2850410128410867e+00 -8.2694484501841430e+00 0 0 0
3449 1 2 3.7826095777311719e-01 4.4480738285442585e-02 -7.3896024353666867e+00 0 0 0
3386 1 2 9.4923630369165368e-01 -4.1142877695602426e-01 -8.8179414375707683e+00 0 0 0
3384 1 2 9.4801617787791270e-01 6.8197692008796895e-01 -9.3453666482661202e+00 0 0 0
3381 1 2 7.2262498863495117e-02 1.2348426965841615e+00 -9.1389575427047021e+00 0 0 0
3106 1 1 -1.4285695666197262e+00 -7.9912398785045621e-02 -7.3036846696849063e+00 0 0 0
3457 1 2 -9.1198646396208255e-02 -1.0340870322888343e+00 -7.1106948776483598e+00 0 0 0
3389 1 1 1.4318059658986741e+00 -1.1619705888940417e+00 -9.3420317315054380e+00 0 0 0
3635 1 2 9.8320154951189298e-01 -1.3802927725518321e+00 -8.1119728107700588e+00 0 0 0
3392 1 1 1.9900456841722207e+00 -1.0177121409513412e+00 -8.4092271141111397e+00 0 0 0
3638 1 2 1.9608994122561814e+00 -1.2840801585827908e+00 -7.4318824621910098e+00 0 0 0
3349 1 2 1.3340417896307715e+00 5.4021111681672906e-01 -7.6572799366755691e+00 0 0 0
3390 1 2 1.8081180567346229e+00 -3.1227620025272268e-01 -9.6047352667261521e+00 0 0 0
3391 1 1 2.5584544170812489e+00 -7.1473782016235432e-01 -9.0985760348023579e+00 0 0 0
3348 1 2 1.3488284719238528e+00 -3.5024642253466315e-01 -7.8463140697015294e+00 0 0 0
3393 1 2 2.8073069873960783e+00 -6.5955578373213386e-01 -8.0398171657125932e+00 0 0 0
3394 1 1 3.6841810077518065e+00 -6.6792688004343392e-01 -8.2560844658536556e+00 0 0 0
3350 1 2 1.7194181396349548e+00 1.1649020987548580e+00 -8.2799311932732156e+00 0 0 0
3347 1 2 1.8611697241367333e+00 8.4340971711723639e-02 -8.4494246125071992e+00 0 0 0
3346 1 1 2.0716465791120084e+00 6.3671241376211574e-01 -9.2369174643685668e+00 0 0 0
2887 1 2 3.1810720083484392e+00 3.2736722018208680e-01 -8.4234987643432913e+00 0 0 0
3405 1 2 3.3129838465999133e+00 1.2653261093268319e-02 -7.3329591107787522e+00 0 0 0
2886 1 2 2.5792705382937773e+00 6.6023442636094831e-01 -7.8426907987268297e+00 0 0 0
2891 1 2 3.4745060321255070e+00 1.0939526898624994e+00 -7.7321510365084505e+00 0 0 0
3446 1 2 2.2929081112529675e+00 -1.7994905199208094e-01 -7.2925424512725305e+00 0 0 0
3343 1 1 3.2292590284429479e+00 8.0675753228559977e-01 -9.3599950133359044e+00 0 0 0
2884 1 2 2.0479547627344972e+00 9.9192420063347386e-01 -6.9840407935849207e+00 0 0 0
3402 1 2 5.4466336690549761e+00 -1.2121288216899517e+00 -6.9483627171693483e+00 0 0 0
3395 1 1 4.5499725233192674e+00 -6.0562638096247468e-01 -8.6204680191820433e+00 0 0 0
3404 1 1 4.0879084181979932e+00 -5.9166621988916535e-01 -7.1430435682169700e+00 0 0 0
3342 1 2 4.1004400876683276e+00 5.1428052252786993e-01 -9.1218614422352697e+00 0 0 0
2888 1 1 4.0629861490848578e+00 2.5471218461363759e-01 -8.0234818611761956e+00 0 0 0
3396 1 1 5.1381595671104723e+00 1.5622936719865321e-01 -8.4238578145000460e+00 0 0 0
2890 1 2 4.0261002150716756e+00 7.9573176101326815e-01 -7.0017765287553413e+00 0 0 0
3403 1 1 4.8216010666481388e+00 -9.1491424658795983e-01 -7.6258845140679075e+00 0 0 0
3397 1 2 4.9689558653052979e+00 1.0584728081209600e+00 -8.5384942253130927e+00 0 0 0
3400 1 2 5.6437690552800115e+00 -1.6658330024280599e-01 -7.4430945521674365e+00 0 0 0
3401 1 2 6.1799911612354679e+00 -1.0042453653898562e+00 -7.6048306202633427e+00 0 0 0
2889 1 1 4.7100916798095334e+00 3.1187379127226872e-01 -7.3532534802332057e+00 0 0 0
3399 1 1 5.7836338594433094e+00 7.7353512080845621e-01 -7.6299920741986238e+00 0 0 0
2843 1 1 6.7746163930571184e+00 3.0970739057936525e-01 -6.9711680524950701e+00 0 0 0
1812 1 2 -4.4735886905317015e+00 1.6956994587337908e+00 -7.7537073986473457e+00 0 0 0
1235 1 2 -5.3347779357485487e+00 2.0997453026579005e+00 -7.2085825415687932e+00 0 0 0
1810 1 2 -4.7746329613610756e+00 3.2565202240371183e+00 -7.1390398533395123e+00 0 0 0
3368 1 2 -3.6645788982962562e+00 1.5080323910267301e+00 -7.0446415211738849e+00 0 0 0
1811 1 2 -4.4276188415544331e+00 2.6608306888431228e+00 -7.8102811472792908e+00 0 0 0
1744 1 1 -3.7072860781080257e+00 3.4553869043622560e+00 -7.7190291134540718e+00 0 0 0
3373 1 2 -1.9806161657268939e+00 2.1335392112967186e+00 -8.3433602595381338e+00 0 0 0
3369 1 2 -3.4075365296363067e+00 1.6627546465310086e+00 -7.9225544042356724e+00 0 0 0
3366 1 2 -2.3974823417646021e+00 1.9196681434440463e+00 -7.3628391377877103e+00 0 0 0
3371 1 1 -3.2262293243492253e+00 2.5701612958590534e+00 -8.3643499542882136e+00 0 0 0
3372 1 2 -2.6768810092090889e+00 1.8178530660850880e+00 -8.8517273009089106e+00 0 0 0
3370 1 2 -3.3665760018337805e+00 2.5329873333228106e+00 -7.4098973254403822e+00 0 0 0
3293 1 2 -2.8096026466183646e+00 3.7703508908934182e+00 -8.4417385812117267e+00 0 0 0
3300 1 2 -1.8607348737604910e+00 3.7796952437913691e+00 -7.6426194768169182e+00 0 0 0
3374 1 2 -1.8981836901363209e+00 3.0939101754413052e+00 -8.5325759973149395e+00 0 0 0
3299 1 1 -2.5979024419303816e+00 3.2285711846681973e+00 -7.4422831608764719e+00 0 0 0
3364 1 2 -1.3248959602417152e+00 1.6198771249293398e+00 -7.7087266976648383e+00 0 0 0
3365 1 2 -1.6148183738003523e+00 2.5325567292044364e+00 -7.4836406560077720e+00 0 0 0
3382 1 2 8.3517785711324199e-01 1.5201924042394235e+00 -8.5771992962024139e+00 0 0 0
3379 1 2 -1.1259257965936085e+00 1.6200269812749346e+00 -8.8323349202596795e+00 0 0 0
3363 1 2 -5.1121514524796907e-01 1.7321475987461472e+00 -7.2803898871087744e+00 0 0 0
3035 1 2 3.4485854889292522e-01 2.1170310178379474e+00 -7.8084596322416697e+00 0 0 0
3375 1 2 -1.2184397909646443e+00 2.7941598434831008e+00 -9.1165284948996277e+00 0 0 0
3291 1 2 -1.1204334027236857e+00 3.9640715125706509e+00 -8.7670426794708014e+00 0 0 0
3290 1 1 -9.5614897436500668e-01 3.2930570393886769e+00 -8.0540330170058692e+00 0 0 0
3359 1 1 -9.6854023556030389e-01 3.5245615922022671e+00 -7.0852090567776385e+00 0 0 0
3378 1 2 -7.1569851624342307e-01 2.3208311848838705e+00 -8.2775712647477970e+00 0 0 0
3377 1 2 1.5617226977481907e-01 2.2585898952403101e+00 -8.7496339716782998e+00 0 0 0
3376 1 1 -2.6355881354852445e-01 3.1026417247327855e+00 -9.0481868747627132e+00 0 0 0
3362 1 1 -4.2825066189342448e-01 2.6860513498487348e+00 -7.3531499643745146e+00 0 0 0
3356 1 1 1.6573515558627683e-01 3.1022442255657059e+00 -8.0712737780251445e+00 0 0 0
3357 1 2 6.0732318462071655e-01 2.9867382997037901e+00 -7.2217767124213434e+00 0 0 0
3287 1 2 8.3432684170902349e-01 3.8310679393741931e+00 -8.6731558884469955e+00 0 0 0
3358 1 2 -2.9930518312723003e-02 3.5873067331176469e+00 -6.9340607987621592e+00 0 0 0
3383 1 1 1.2628747767394628e+00 1.5448725060949262e+00 -9.4169339890639510e+00 0 0 0
3345 1 2 2.2724961577611240e+00 1.5750522134296445e+00 -9.5688640869052470e+00 0 0 0
3344 1 2 2.7189112620424880e+00 1.3312899897936052e+00 -8.7570193889748875e+00 0 0 0
3355 1 2 1.0398957343509285e+00 2.7832750889637183e+00 -8.2521920343985187e+00 0 0 0
3034 1 2 1.2642166415895604e+00 2.0011618325932070e+00 -7.5943930944086055e+00 0 0 0
3276 1 2 1.6350345232312073e+00 3.5701265326066425e+00 -7.9989317625355891e+00 0 0 0
2885 1 2 2.4829554106212397e+00 1.6274340868287229e+00 -7.6562890887674264e+00 0 0 0
3354 1 2 1.1020275868157423e+00 2.6410910712551412e+00 -9.1904407262780978e+00 0 0 0
3351 1 2 1.8650145252764456e+00 2.0441908405387941e+00 -8.6613423065915498e+00 0 0 0
3352 1 2 2.5989640949225663e+00 2.6062558509970706e+00 -8.7840760612960818e+00 0 0 0
3339 1 2 3.4713426175341544e+00 2.0991783873362491e+00 -8.1419403027112054e+00 0 0 0
3353 1 2 1.9147712552419598e+00 3.1939411316958743e+00 -8.9842104357976122e+00 0 0 0
3340 1 2 3.5626929509718175e+00 2.0652439654343415e+00 -9.1255183519015901e+00 0 0 0
3274 1 2 2.1376695576297697e+00 2.6537258035874514e+00 -7.8190966086050997e+00 0 0 0
2896 1 2 3.4994481932580839e+00 3.4197873151655549e+00 -7.2215327206580318e+00 0 0 0
2899 1 2 2.5415365090029809e+00 3.6215690087940002e+00 -7.5899663396847377e+00 0 0 0
2897 1 2 3.2390616979415023e+00 3.0679884598985061e+00 -8.0785650631635946e+00 0 0 0
2898 1 1 2.7506245188267067e+00 3.7349620866922746e+00 -8.5367145893303711e+00 0 0 0
3272 1 2 3.4081557119571086e+00 1.8853291867943642e+00 -7.0442955812125776e+00 0 0 0
3275 1 2 1.6116338014526181e+00 3.1036821414614413e+00 -7.1816249915715717e+00 0 0 0
3273 1 2 2.8343873471934247e+00 2.5817304878173402e+00 -7.1797406825874805e+00 0 0 0
3341 1 2 3.8201374250701821e+00 1.2981498319397409e+00 -8.6863181701539212e+00 0 0 0
2892 1 2 4.3496225881384785e+00 1.4644708000995701e+00 -7.7485131494203880e+00 0 0 0
3398 1 1 5.6105823970806705e+00 1.6816824990737362e+00 -8.0673933540882068e+00 0 0 0
3338 1 2 4.0989173142563295e+00 2.4966539253438214e+00 -7.5515155202479871e+00 0 0 0
2894 1 2 4.1324909536338357e+00 2.9427175153543881e+00 -8.7448822957087824e+00 0 0 0
2895 1 1 4.0753486305462578e+00 3.5829587717835727e+00 -8.0380210039830562e+00 0 0 0
2893 1 1 4.5293690665516921e+00 2.1117695836495494e+00 -8.4448534414902525e+00 0 0 0
3337 1 1 4.9630661832057905e+00 2.3115175581128851e+00 -7.0840666152637617e+00 0 0 0
3335 1 2 4.7653130738335774e+00 3.4015977434644546e+00 -7.0842206585073253e+00 0 0 0
3336 1 1 5.2604668819890525e+00 2.9522402257475751e+00 -7.7596782476873214e+00 0 0 0
2792 1 1 5.9772311747357820e+00 2.4284199578935488e+00 -7.2036370264130358e+00 0 0 0
1745 1 2 -4.0869390442935076e+00 4.2151886703965564e+00 -7.2025744714145432e+00 0 0 0
3294 1 1 -3.5561448510398335e+00 4.4282949134842289e+00 -8.3033086192016015e+00 0 0 0
3292 1 2 -2.0626863135410685e+00 4.2423124221989230e+00 -8.6300604961121543e+00 0 0 0
3295 1 2 -2.7899506951927080e+00 4.9462080823539853e+00 -8.4970869941550493e+00 0 0 0
3296 1 2 -2.3059001250457793e+00 4.9767142756063905e+00 -7.7500031031528636e+00 0 0 0
1747 1 2 -3.4254469868925117e+00 5.3101897431724634e+00 -7.4285898496266531e+00 0 0 0
3297 1 2 -1.9579731381641978e+00 4.5916390076495652e+00 -6.9616724966309134e+00 0 0 0
1748 1 1 -3.0547918216378402e+00 4.4588697716708250e+00 -7.1612180968071568e+00 0 0 0
1750 1 2 -2.2519147373591215e+00 5.8073787973835929e+00 -7.0360393852998540e+00 0 0 0
3279 1 2 7.1061813489256209e-01 4.0092252167893978e+00 -7.5928303303060396e+00 0 0 0
3301 1 2 -1.3228873252156748e+00 4.5595923581978006e+00 -7.8542440384512906e+00 0 0 0
3288 1 2 1.2810321561459517e-01 4.5268872496350694e+00 -8.5007226674402947e+00 0 0 0
1751 1 2 -1.7004313248241636e+00 5.8082547287350570e+00 -7.7991092255883121e+00 0 0 0
3302 1 2 -9.1329494110496601e-01 5.1168137940146874e+00 -8.5159608103391342e+00 0 0 0
3289 1 2 -3.5507597405975033e-01 4.0661105583511175e+00 -7.8546557392991181e+00 0 0 0
3280 1 2 6.1618793138802008e-01 4.9434656913378365e+00 -7.4239163313997079e+00 0 0 0
3303 1 2 -4.3482319943921960e-01 5.1123760010924517e+00 -7.7171012436105144e+00 0 0 0
3304 1 2 -5.6976761038367862e-01 6.0377475600273431e+00 -7.8569658603026173e+00 0 0 0
3305 1 1 -1.1751164430968388e+00 6.6963078188197924e+00 -7.5255775715659690e+00 0 0 0
3282 1 2 8.0004581233942718e-01 6.0263451340957310e+00 -7.4020988330250281e+00 0 0 0
1752 1 2 -1.2400858488815198e+00 5.5191365697721260e+00 -7.0252535111855154e+00 0 0 0
3286 1 2 1.2096733129668396e+00 4.7070284193461926e+00 -8.3714628376962423e+00 0 0 0
3277 1 1 1.6669686658069394e+00 4.2055622000483162e+00 -7.2887054098585562e+00 0 0 0
2900 1 1 3.1172793441021338e+00 4.4182841232840406e+00 -7.8148953818159548e+00 0 0 0
3285 1 2 2.1377510840694680e+00 4.6324678817721274e+00 -8.1808772129425034e+00 0 0 0
3283 1 2 1.5007012977326828e+00 5.4302679836826959e+00 -7.6488760706556125e+00 0 0 0
3284 1 1 2.3713957552776157e+00 5.5730837294480606e+00 -7.9819433801891435e+00 0 0 0
2931 1 1 3.4569978686332026e+00 5.2641742075257234e+00 -7.1142950658152442e+00 0 0 0
3323 1 1 2.4145771542047565e+00 4.9463199117535455e+00 -7.0997574119327229e+00 0 0 0
2932 1 2 2.8454177441235018e+00 5.9902211093622633e+00 -6.9877112109084809e+00 0 0 0
2901 1 1 3.9924701712660751e+00 4.3565956285849516e+00 -7.3728086996695685e+00 0 0 0
2902 1 2 4.5441683393783743e+00 5.0924328778461305e+00 -7.1278602622908540e+00 0 0 0
2903 1 2 4.9325391493392168e+00 4.3354629472085247e+00 -7.7538271178482026e+00 0 0 0
3696 1 1 -2.2666443483938008e+00 -6.8530188582446181e+00 -6.3276124685598978e+00 0 0 0
3697 1 1 -2.7378650043636350e+00 -7.2707836798321583e+00 -5.6154600540410193e+00 0 0 0
536 1 1 -3.6215101289681395e+00 -7.3833813040489717e+00 -4.4357084058712344e+00 0 0 0
3698 1 2 -2.4269580079289832e+00 -7.5643460014590511e+00 -4.8246470984357686e+00 0 0 0
1656 1 2 -1.7679038848409359e+00 -6.9582742545949356e+00 -4.2290002428625693e+00 0 0 0
3699 1 1 -1.6979702240554997e+00 -7.6753380384305094e+00 -5.5506634261663859e+00 0 0 0
3706 1 1 5.6964028724788884e-01 -7.0978351331064804e+00 -5.8367421682770768e+00 0 0 0
3703 1 2 4.9095193955994826e-01 -6.9040268863727148e+00 -4.6314697583698390e+00 0 0 0
3702 1 1 -2.0322215297005283e-01 -7.3367323159335509e+00 -5.1930389438617768e+00 0 0 0
1652 1 2 3.9058816012250280e-01 -8.0399828950769479e+00 -4.3279236672147672e+00 0 0 0
3707 1 2 -2.5695266648433773e-01 -6.9198440657901577e+00 -6.3128873841973236e+00 0 0 0
3700 1 1 -1.1802740876574600e+00 -7.6763182520485254e+00 -4.7847711398405552e+00 0 0 0
3701 1 2 -6.0926605411707402e-01 -7.0446632718480720e+00 -4.3732301897313093e+00 0 0 0
3705 1 2 1.0342294800063869e+00 -7.8485639046067188e+00 -5.4329361922233463e+00 0 0 0
3704 1 2 1.3964395754723942e+00 -7.0907189338317416e+00 -4.9009065096056510e+00 0 0 0
3476 1 2 2.2120671404033456e+00 -7.4893107235263745e+00 -5.5485005110309409e+00 0 0 0
3526 1 1 3.5668184048299478e+00 -7.1604574230555507e+00 -4.6283843333023373e+00 0 0 0
3475 1 1 1.6231488068231010e+00 -6.9315115342533478e+00 -6.0555580374653690e+00 0 0 0
3477 1 1 2.4426716424792736e+00 -6.8410844522445853e+00 -4.9891528441509303e+00 0 0 0
1264 1 2 -4.7250223927927779e+00 -5.4062686677577618e+00 -6.5673028483475830e+00 0 0 0
1315 1 2 -5.5516731478709795e+00 -4.6072915419527316e+00 -4.7134117857609947e+00 0 0 0
1265 1 2 -5.0160243090886745e+00 -4.4938177728437116e+00 -6.2939258637264199e+00 0 0 0
1266 1 2 -4.5401528073224640e+00 -4.6687549949082934e+00 -5.4317234969236736e+00 0 0 0
1317 1 1 -6.4924229420417827e+00 -5.2769944053863966e+00 -4.9692034238846219e+00 0 0 0
1316 1 2 -5.9017176980293442e+00 -5.5051199105415138e+00 -4.3208427464862007e+00 0 0 0
3998 1 2 -4.8467768829659050e+00 -5.3916132276344282e+00 -4.7102301295700970e+00 0 0 0
3999 1 2 -4.5045331393180428e+00 -4.5938652474002017e+00 -4.2545262021328911e+00 0 0 0
1263 1 1 -4.3760278463527422e+00 -6.3016104625284211e+00 -6.4736099166591927e+00 0 0 0
1257 1 2 -3.8993494603229872e+00 -4.5160820980565521e+00 -6.4607063871066011e+00 0 0 0
3997 1 2 -4.2097960057910182e+00 -5.6215624698561655e+00 -5.4221732617832865e+00 0 0 0
1258 1 1 -3.6326103692299587e+00 -5.3811385862302945e+00 -6.3491136188890849e+00 0 0 0
1259 1 2 -3.3033430327949085e+00 -5.0155510432893804e+00 -5.5180414906720889e+00 0 0 0
1261 1 2 -2.7436547371570827e+00 -5.9163028248311083e+00 -6.0036485343582342e+00 0 0 0
1262 1 1 -3.4418839888699435e+00 -6.4487664673550098e+00 -6.3726232951777861e+00 0 0 0
3716 1 1 -2.1630359761148688e+00 -5.5929697500273967e+00 -6.8600251120995743e+00 0 0 0
3717 1 2 -2.7768755439985604e+00 -4.8666398295692455e+00 -6.5629645487681048e+00 0 0 0
3609 1 2 -1.8968093351599480e+00 -4.1679198331287211e+00 -6.8740277888846206e+00 0 0 0
1260 1 2 -2.3111848954965155e+00 -5.1934586552086284e+00 -5.5298874401836944e+00 0 0 0
3996 1 1 -3.6105935992736313e+00 -6.4074718749198132e+00 -5.3300077570369719e+00 0 0 0
1659 1 2 -2.2690249992987539e+00 -6.4243314475667086e+00 -5.0379293273486665e+00 0 0 0
1662 1 2 -2.6362406959519427e+00 -4.2089179393637206e+00 -4.9685595560774471e+00 0 0 0
1663 1 2 -3.5658190635460651e+00 -4.2189035990473212e+00 -4.9161942846868776e+00 0 0 0
537 1 2 -2.9200768545700861e+00 -6.8011552484849034e+00 -4.2741120413033773e+00 0 0 0
1660 1 2 -2.9156870841178129e+00 -5.7939894234164653e+00 -4.8450540908250224e+00 0 0 0
4000 1 2 -3.7625792451760671e+00 -5.1760622007199002e+00 -4.4958768172296280e+00 0 0 0
3995 1 1 -3.7532140714133817e+00 -6.3015720511700213e+00 -4.3380650279362811e+00 0 0 0
1661 1 2 -2.5976132211177196e+00 -4.9917518906106535e+00 -4.4695470949747245e+00 0 0 0
3964 1 1 -1.7875252961585184e+00 -4.2557908496396601e+00 -4.2728633836690095e+00 0 0 0
3695 1 2 -1.3260050744797955e+00 -6.7879526112697910e+00 -6.4813436465786980e+00 0 0 0
3715 1 2 -1.5392020455350981e+00 -5.0736349743832498e+00 -6.3590507555503182e+00 0 0 0
3612 1 2 -1.4462774864788983e+00 -4.5198665683350230e+00 -5.3759462044814210e+00 0 0 0
3694 1 1 -1.5977469860120488e+00 -6.1406820854877076e+00 -5.9153286836277790e+00 0 0 0
3688 1 1 -8.8888925698054322e-01 -5.3810110413050998e+00 -5.5414458439377601e+00 0 0 0
1658 1 1 -1.7069854214422759e+00 -5.6434380246178204e+00 -4.9155089486645123e+00 0 0 0
3711 1 2 -7.6787864902340375e-01 -5.7907619479877717e+00 -6.4110326018644530e+00 0 0 0
3714 1 2 -7.3388624325482466e-01 -4.7020853122683821e+00 -6.7049449814675492e+00 0 0 0
3693 1 2 -1.0479549772321846e+00 -6.5993917829402626e+00 -5.2890277999007020e+00 0 0 0
3691 1 2 -2.4714919222211668e-02 -6.0642365758495558e+00 -5.6600637200726496e+00 0 0 0
3689 1 2 -3.7568862863660707e-01 -4.5960272599547514e+00 -5.6655577146767344e+00 0 0 0
3710 1 2 4.4776301565415101e-02 -5.2799959169213366e+00 -6.4259932986511696e+00 0 0 0
3690 1 2 2.5353409119341713e-01 -5.2305806761395930e+00 -5.2186785617341718e+00 0 0 0
3587 1 2 5.3950741868989438e-01 -4.2406675230272031e+00 -5.8837097528980697e+00 0 0 0
3089 1 2 3.7533709593518144e-01 -4.2418754455093053e+00 -4.8304899132649615e+00 0 0 0
3692 1 2 -4.1899702511716874e-01 -6.0140878308726169e+00 -4.8458727449739296e+00 0 0 0
3583 1 2 7.6712386980605629e-01 -5.8704389672495569e+00 -4.5325392755492535e+00 0 0 0
3687 1 2 -7.9812479552465465e-01 -4.9651100798621162e+00 -4.7014897356103305e+00 0 0 0
3662 1 2 2.0375692816526634e+00 -5.5905356372384665e+00 -6.5942942274614396e+00 0 0 0
3471 1 2 1.3601925783933144e+00 -4.5063186433423583e+00 -6.5886546569185294e+00 0 0 0
3585 1 2 1.2122704161485947e+00 -5.3871469746829295e+00 -5.9032360675914290e+00 0 0 0
3586 1 2 1.3598130815985483e+00 -4.5664078194851898e+00 -5.4836872445077853e+00 0 0 0
3584 1 2 1.0255831121025003e+00 -6.1054930725104608e+00 -5.4245788903112730e+00 0 0 0
3676 1 2 1.5651736544763184e+00 -5.3368508359310640e+00 -4.9075995302858475e+00 0 0 0
3474 1 1 1.1852610564249728e+00 -6.2433330561716804e+00 -6.5461357086673440e+00 0 0 0
3675 1 2 2.4186176765938909e+00 -4.8525821300812693e+00 -4.9877416176744118e+00 0 0 0
3663 1 2 2.2277538120844351e+00 -4.8122525788971968e+00 -6.0415793820048291e+00 0 0 0
3235 1 1 2.9988743512740714e+00 -4.5452149252499918e+00 -6.7279875646289584e+00 0 0 0
3522 1 2 2.6596404721016245e+00 -6.5026764896896765e+00 -5.9986312576399197e+00 0 0 0
3523 1 1 2.0204554103606189e+00 -5.9464589451070271e+00 -5.5732075689730394e+00 0 0 0
3664 1 2 2.9393188906007039e+00 -5.4488464023092877e+00 -6.0234604123611151e+00 0 0 0
3668 1 2 3.3751434706397418e+00 -4.4986371678731105e+00 -5.6040239495220510e+00 0 0 0
3521 1 2 3.4360379780891495e+00 -6.3841827146021224e+00 -5.4588963858734276e+00 0 0 0
3524 1 2 2.6832345864675582e+00 -5.8250987156450504e+00 -4.8833965276680793e+00 0 0 0
3525 1 2 3.4404949535309184e+00 -6.2877479293660183e+00 -4.4185765325087898e+00 0 0 0
3519 1 2 3.5670676568868727e+00 -5.1710701600821203e+00 -4.6149708096780371e+00 0 0 0
3677 1 2 1.2831846409457734e+00 -4.6771873902283954e+00 -4.3510316976719503e+00 0 0 0
3478 1 2 1.8195493126079383e+00 -6.2276541440246191e+00 -4.3687473217259365e+00 0 0 0
3500 1 2 4.5258805823155246e+00 -5.6725800304096863e+00 -4.5699737925583701e+00 0 0 0
3499 1 1 4.4645617623432017e+00 -6.4846979447932194e+00 -5.1066813960584039e+00 0 0 0
3520 1 2 3.8259579999303455e+00 -5.5224187835799334e+00 -5.4572925798534824e+00 0 0 0
3666 1 2 3.7737160217630592e+00 -5.3841543361025730e+00 -6.6467914438438038e+00 0 0 0
3667 1 1 4.0216449579778866e+00 -4.4512573317058255e+00 -6.2527124181145419e+00 0 0 0
3517 1 2 4.5173024086894147e+00 -4.6441190327648085e+00 -5.2969958267476382e+00 0 0 0
3503 1 2 5.3659260555505339e+00 -4.8374265923160928e+00 -6.0296154321071489e+00 0 0 0
3504 1 2 6.0778087009758792e+00 -4.9268741342109008e+00 -5.3830889303852620e+00 0 0 0
3502 1 2 4.6578191328864715e+00 -5.4948553088054881e+00 -6.0926363447233571e+00 0 0 0
3505 1 2 6.0938354693719248e+00 -4.5351623214933818e+00 -4.5428406541116066e+00 0 0 0
3501 1 1 5.1418337225093618e+00 -5.5847384282624830e+00 -5.3000542556583561e+00 0 0 0
3518 1 2 4.2387832212266705e+00 -4.5727957183810437e+00 -4.2895536759914190e+00 0 0 0
3498 1 2 5.2986625679590897e+00 -6.4754478649375979e+00 -4.6329970141163574e+00 0 0 0
3497 1 2 5.6915859575485914e+00 -5.6836224783036942e+00 -4.2352951042075837e+00 0 0 0
1295 1 1 -7.2791414221653667e+00 -2.2230269229856385e+00 -5.4477041053819590e+00 0 0 0