LAMMPS data file via write_data, version 16 Mar 2018, timestep = 0

4000 atoms
2 atom types
3999 bonds
1 bond types

-9.1778291863832848e+00 1.0087068123084702e+01 xlo xhi
-9.3440749338915712e+00 9.3971299163410222e+00 ylo yhi
-1.0098423687738039e+01 1.0098058763837122e+01 zlo zhi

Masses

1 1
2 1

Atoms # bond

2983 1 2 -2.2561924210952036e+00 -4.1112370931429156e+00 -8.3849125349074836e+00 0 0 0
3060 1 2 -1.4694180027156305e+00 -4.8464926834610935e+00 -8.2765969573599847e+00 0 0 0
2981 1 1 -1.2752666285365672e+00 -4.1718370758522410e+00 -9.0556706959321769e+00 0 0 0
2984 1 1 -2.6535838498848401e+00 -4.8112118879671666e+00 -7.7643746771586253e+00 0 0 0
2985 1 2 -3.6189625335630087e+00 -4.8384218296356778e+00 -7.6756678896494792e+00 0 0 0
2316 1 2 -3.5537194824858598e-01 -4.3613904773701195e+00 -8.3722533107122032e+00 0 0 0
2315 1 2 -3.9281856046602326e-01 -5.2580308016725850e+00 -8.0932365540411819e+00 0 0 0
1951 1 2 7.1307377113764803e-01 -4.4439152771277008e+00 -7.9567757706321434e+00 0 0 0
1952 1 1 9.3907475669198348e-01 -5.3221224747491593e+00 -8.1878483026878612e+00 0 0 0
1950 1 2 1.3779138192210127e+00 -4.3110858199287128e+00 -8.6772511473026235e+00 0 0 0
1953 1 2 1.7277041552891870e+00 -4.9905934160272043e+00 -7.8212490241223511e+00 0 0 0
1957 1 1 3.6669786277850260e+00 -4.5673796110036786e+00 -7.8218012213167638e+00 0 0 0
3310 1 2 -4.2260844124991985e+00 -1.8910763870416381e+00 -7.7453800853339967e+00 0 0 0
2982 1 2 -2.0931120114511530e+00 -3.6820024849810959e+00 -9.2027633119066401e+00 0 0 0
2954 1 1 -3.1855931004871141e+00 -2.6951449345643872e+00 -7.7580346404652234e+00 0 0 0
2979 1 2 -1.2962275356803137e+00 -2.9085640805378943e+00 -8.8436813461810733e+00 0 0 0
2957 1 1 -2.3417198878771122e+00 -2.9154051510344727e+00 -8.4698035109400447e+00 0 0 0
2974 1 1 -2.8047937586602480e+00 -1.8601466462344454e+00 -8.3132185609982994e+00 0 0 0
2973 1 2 -3.5468548597458049e+00 -1.3587489824424965e+00 -8.5559040407487554e+00 0 0 0
2975 1 1 -2.0667352462493866e+00 -1.3411844345396122e+00 -8.5807329383521846e+00 0 0 0
2977 1 2 -2.0841881798767443e+00 -2.1953830960127974e+00 -9.2337616481259381e+00 0 0 0
2958 1 1 -1.8037454334278111e+00 -2.2655186648842727e+00 -8.0975051605812496e+00 0 0 0
2980 1 2 -1.2562254968526549e+00 -3.6847490619981222e+00 -8.2325896983853699e+00 0 0 0
2978 1 2 -1.2184326959424494e+00 -2.2705668456772297e+00 -9.5811277912727757e+00 0 0 0
2959 1 2 -9.9796596318044029e-01 -2.7416472414008082e+00 -7.7948976604989166e+00 0 0 0
2962 1 2 -9.6163436309396799e-01 -1.8141810807743011e+00 -8.6668847547007211e+00 0 0 0
2956 1 2 -2.0172450646061408e+00 -3.1884772755059294e+00 -7.5773418085525304e+00 0 0 0
2955 1 2 -2.8662682912349542e+00 -3.6120904550069488e+00 -7.5849760830176773e+00 0 0 0
1949 1 2 1.6521291079387914e+00 -3.5008033417953115e+00 -9.1424248971342763e+00 0 0 0
2344 1 2 -3.1505198906703402e-01 -3.0866802513172291e+00 -8.5221746627537911e+00 0 0 0
2342 1 2 8.7752957932392162e-01 -3.3497852870988436e+00 -8.0900332433763911e+00 0 0 0
2345 1 2 8.4635158023233320e-02 -2.5348736599214394e+00 -9.2078140476387951e+00 0 0 0
2343 1 2 4.1090540974237744e-01 -3.6354717322809247e+00 -8.8637756400511343e+00 0 0 0
2346 1 2 4.5771137001652307e-02 -1.8078213501870759e+00 -9.8432064750304260e+00 0 0 0
2961 1 2 -1.8632827257791221e-01 -2.1014933029242160e+00 -8.2700229438589048e+00 0 0 0
2329 1 2 6.3003237880609786e-01 -1.4647191054793658e+00 -8.6679458226748842e+00 0 0 0
2330 1 2 8.9316018082313953e-01 -2.3351478573824997e+00 -8.4235451446340601e+00 0 0 0
2331 1 2 1.4033977149833052e+00 -2.3690718238622410e+00 -9.2613552245123181e+00 0 0 0
2781 1 2 1.6123748296891003e+00 -1.8014199410331002e+00 -7.6811503507108112e+00 0 0 0
2336 1 2 1.8277677906321033e+00 -2.6955663083491954e+00 -8.3513553557876889e+00 0 0 0
2332 1 2 1.7154782313944372e+00 -1.6393510091644630e+00 -8.7999458620626996e+00 0 0 0
2317 1 2 -1.1953680281202446e-01 -3.8244119149415692e+00 -7.6469100247409409e+00 0 0 0
2341 1 2 1.6201522738437633e+00 -3.8028443201933464e+00 -7.7007882792032074e+00 0 0 0
1948 1 2 2.2878261442558987e+00 -3.8314906449052608e+00 -8.5246540462099212e+00 0 0 0
2335 1 1 2.5961578856600189e+00 -2.7400954861469211e+00 -9.0491859869870357e+00 0 0 0
2334 1 2 3.1635844898692609e+00 -1.9629450230008874e+00 -8.7293442823705334e+00 0 0 0
2782 1 2 2.5522718595374223e+00 -1.8296264928717660e+00 -7.8395521397971040e+00 0 0 0
1946 1 2 3.1627220997082457e+00 -2.8072008780599695e+00 -8.0412195339198256e+00 0 0 0
1945 1 1 4.0435495977607676e+00 -3.1855842492737403e+00 -7.9347015340735432e+00 0 0 0
1964 1 2 3.6187156144454065e+00 -1.9056300111350322e+00 -7.6950471431988179e+00 0 0 0
1947 1 2 2.8642058390314289e+00 -3.7297301674411449e+00 -7.7585245776366216e+00 0 0 0
1968 1 2 4.5869914936948595e+00 -1.6948210745011065e+00 -8.0082095346767872e+00 0 0 0
1944 1 2 4.9411218579868841e+00 -3.5447951112288778e+00 -7.8045334283101404e+00 0 0 0
3311 1 2 -4.4010608678944214e+00 -9.9349007973094516e-01 -7.8630448245920750e+00 0 0 0
3312 1 1 -5.3339527416990702e+00 -8.3406313560117884e-01 -7.9684507246551091e+00 0 0 0
3333 1 1 -5.4434028322809613e+00 7.6839060239654677e-01 -7.6145365683399033e+00 0 0 0
3334 1 2 -4.7522404179212892e+00 6.8131147539523473e-01 -8.2844127634456903e+00 0 0 0
2969 1 2 -3.7987732655522479e+00 4.8796750501301950e-01 -7.6573043469031079e+00 0 0 0
3335 1 2 -4.3857883545018899e+00 1.3260128675923208e+00 -7.6866360073878575e+00 0 0 0
2976 1 1 -1.8740306580256971e+00 -1.2659697433810946e+00 -9.4556845121638897e+00 0 0 0
2963 1 1 -1.1492943491282521e+00 -1.2576482877626216e+00 -7.9415947025401250e+00 0 0 0
2972 1 1 -2.9403960989980313e+00 -9.9599205734894125e-01 -9.2863871846652675e+00 0 0 0
2971 1 1 -2.7123321260244739e+00 -5.1487404614999732e-01 -8.4843307401254151e+00 0 0 0
2964 1 1 -2.0231905094577063e+00 -1.0885172369848222e+00 -7.5905126827685470e+00 0 0 0
2352 1 1 -2.1161208756128840e+00 -1.0062310244870881e-01 -9.3030657851181164e+00 0 0 0
2970 1 2 -3.5951906233235129e+00 -2.2331805259137072e-01 -8.2650830641540622e+00 0 0 0
2353 1 1 -2.8891261939316686e+00 3.8049102609477375e-01 -9.0625295582703274e+00 0 0 0
2355 1 1 -1.9870706046691526e+00 1.1884922766059267e+00 -9.6024309731167552e+00 0 0 0
2351 1 2 -1.8750238853832555e+00 5.3818431987399606e-01 -8.6550830338439422e+00 0 0 0
2354 1 2 -2.6493292589526320e+00 1.3012084940296083e+00 -8.9428599263363076e+00 0 0 0
3154 1 2 -2.8064456716455806e+00 4.6663655021761152e-01 -7.9827811852840629e+00 0 0 0
3153 1 2 -3.2654938447036841e+00 1.3300645331753911e+00 -8.0425189875500003e+00 0 0 0
2356 1 1 -1.3040918533607204e+00 5.0375635379709138e-01 -9.6268876447724736e+00 0 0 0
2350 1 2 -1.6335292814229589e+00 -3.0211114291043423e-01 -8.2263919376794465e+00 0 0 0
2348 1 1 -1.2097572972682316e+00 -4.9377214930509278e-01 -9.9062926614022668e+00 0 0 0
2349 1 1 -1.1704890817888054e+00 -6.0258071334714092e-01 -8.9480737840757705e+00 0 0 0
3139 1 1 -1.1169567581227418e+00 1.2021489752041661e+00 -8.2163400084105618e+00 0 0 0
3138 1 2 -1.1284610181620569e+00 4.6402260115962046e-01 -7.7044583466137055e+00 0 0 0
2347 1 1 -3.7315105451850716e-01 -9.5333587825207744e-01 -1.0096400444141601e+01 0 0 0
2328 1 1 -1.8441575010593711e-01 -1.1562487192707098e+00 -8.9941862636354681e+00 0 0 0
2322 1 2 -6.2986170143359459e-03 -1.1603482144813477e+00 -7.8690493157225001e+00 0 0 0
2327 1 2 6.0845150262402503e-01 -8.7535570451706068e-01 -9.4797541020760256e+00 0 0 0
2326 1 2 1.4049319789133266e+00 -5.0689760929011052e-01 -9.0347268067082052e+00 0 0 0
2323 1 2 -5.0539511171962559e-01 -4.0533201534351720e-01 -8.0040759494192582e+00 0 0 0
2324 1 1 3.4390113176714282e-01 -3.9904276024165503e-01 -8.4879916401204021e+00 0 0 0
2325 1 1 7.6803863007319684e-01 2.9437983326518097e-01 -9.0008961857754297e+00 0 0 0
2358 1 1 -2.1144055071191697e-01 -1.3855333974849554e-01 -9.4059116994488985e+00 0 0 0
2359 1 1 -1.6757071030127857e-01 8.3586369258284066e-01 -9.6202987268884286e+00 0 0 0
2357 1 1 -7.1958224496552192e-01 4.0300924140281719e-01 -8.8300273540711061e+00 0 0 0
2360 1 1 5.1325047909976877e-02 1.1053887611556541e+00 -8.7740723769646802e+00 0 0 0
2361 1 2 5.2109830906447684e-02 5.6431970522097241e-01 -8.0069289829919672e+00 0 0 0
3142 1 2 1.0570603725685717e+00 1.0163437575675014e+00 -8.2768480893467462e+00 0 0 0
3143 1 1 1.1303080958287059e+00 1.2816793246722675e+00 -9.1818875543178589e+00 0 0 0
1998 1 2 1.2359777995941326e+00 3.5103219573726502e-02 -7.7282819706141250e+00 0 0 0
2780 1 2 1.0115890827350058e+00 -1.0551353725029839e+00 -7.7413921168215305e+00 0 0 0
2333 1 2 2.5994884996303935e+00 -1.2161168992590345e+00 -8.8738479423690038e+00 0 0 0
2767 1 2 3.8045155122175105e+00 -9.6817006478465162e-01 -8.3605140980587933e+00 0 0 0
2674 1 1 3.0145522755604603e+00 -8.9036940007840926e-01 -7.7400963049902609e+00 0 0 0
2779 1 1 1.8472643139407658e+00 -8.0955334194519013e-01 -8.1446420964618742e+00 0 0 0
2675 1 2 2.8713027774239959e+00 -3.0325589644225298e-01 -8.4992231177375590e+00 0 0 0
2776 1 2 1.9913852982120044e+00 2.1857855338642873e-01 -8.4470493405848011e+00 0 0 0
2676 1 1 2.4982636895048707e+00 -4.4661799429664785e-02 -9.3974700461034342e+00 0 0 0
2775 1 2 2.7432644894988689e+00 7.3711227509728772e-01 -8.2059392487865281e+00 0 0 0
2677 1 2 2.1156410221287811e+00 8.3551201601533887e-01 -9.3623875259885665e+00 0 0 0
2766 1 2 3.8406339255304456e+00 -2.7432974647936070e-01 -9.0482325682863411e+00 0 0 0
2765 1 1 3.7750092144169636e+00 4.3287115971542250e-01 -8.4886265089590722e+00 0 0 0
2774 1 1 3.0560035377224106e+00 1.1982339556993711e+00 -8.9857621158250911e+00 0 0 0
2777 1 2 2.2743102250169733e+00 -1.4328513671986659e-01 -7.5874137638273407e+00 0 0 0
2764 1 1 3.6726478576125507e+00 1.1326096070622635e+00 -7.7864313329953685e+00 0 0 0
2769 1 2 4.6359715985479193e+00 -4.4901688132671430e-01 -8.1644771611607592e+00 0 0 0
1969 1 2 5.4854788553819107e+00 -1.1782826782294444e+00 -8.1306867143742547e+00 0 0 0
2770 1 1 5.3179288821692818e+00 3.2067571255441885e-01 -8.0437840410428869e+00 0 0 0
2771 1 1 4.6216009349540812e+00 9.8875565067242244e-01 -8.2444012479998605e+00 0 0 0
3336 1 1 -4.9937104289779599e+00 1.9429851549723167e+00 -8.0767745509830036e+00 0 0 0
2440 1 1 -5.0896553095454689e+00 3.7779593100339044e+00 -7.6996654791317320e+00 0 0 0
3230 1 1 -4.5999328938051889e+00 2.9692903761825824e+00 -8.1498075295399648e+00 0 0 0
3231 1 2 -3.9593859096601589e+00 3.6297077207997956e+00 -8.3849074206161127e+00 0 0 0
3233 1 2 -3.7106261464413985e+00 2.4550958931909195e+00 -8.4941318094168334e+00 0 0 0
3149 1 1 -2.0968276634346630e+00 1.4054840362266630e+00 -7.9706305147114165e+00 0 0 0
3147 1 1 -1.0065358739570409e+00 1.4548737918232830e+00 -9.2169594986745533e+00 0 0 0
3148 1 2 -1.8101978329737507e+00 1.8090033219990531e+00 -8.7985497298136579e+00 0 0 0
3150 1 2 -1.5697397954128509e+00 2.2037724602596294e+00 -7.8678812381160022e+00 0 0 0
3234 1 2 -2.7038373586910054e+00 2.2933150611791082e+00 -8.3898451807152874e+00 0 0 0
3232 1 2 -3.4869647305099183e+00 3.0841424425361401e+00 -7.7857250805669995e+00 0 0 0
3277 1 1 -2.3715541565318601e+00 3.7849610796604511e+00 -7.9295806346643980e+00 0 0 0
3235 1 1 -1.9370131220993014e+00 2.9215238450090664e+00 -8.6176686381599605e+00 0 0 0
3236 1 2 -1.0174880094985019e+00 2.8986596174815009e+00 -8.7069019024956642e+00 0 0 0
3237 1 1 -1.3917270902733709e+00 3.7488205250147715e+00 -8.4678001800144678e+00 0 0 0
3144 1 2 1.3172747031197471e+00 2.0968789705967956e+00 -8.6450083273814737e+00 0 0 0
3141 1 2 5.0971173281068971e-01 1.7488832318780498e+00 -8.0077471296281715e+00 0 0 0
3140 1 1 -4.5037161114022678e-01 1.8332134424923427e+00 -8.0663651086516897e+00 0 0 0
3246 1 1 -6.4471253302459919e-01 2.8034526226500094e+00 -7.6847843226857018e+00 0 0 0
3145 1 2 5.2484285840008549e-01 2.2043272462406520e+00 -9.1148462024979846e+00 0 0 0
3146 1 1 -3.7822175099383104e-01 2.1935870034977705e+00 -9.1319253074150843e+00 0 0 0
3250 1 2 1.2548590362902274e+00 2.9890016374165915e+00 -7.7834605234272525e+00 0 0 0
3252 1 2 3.3579718828648902e-01 2.7435218653645923e+00 -8.1760498904661674e+00 0 0 0
3254 1 2 -7.3617219465556860e-01 3.8549866475771610e+00 -7.6387156148545134e+00 0 0 0
3253 1 1 -3.5097469096418241e-02 3.6687982307544940e+00 -8.3305067646739879e+00 0 0 0
3251 1 2 1.0272747156327402e+00 3.0833469038738497e+00 -8.6917150510487122e+00 0 0 0
2678 1 2 2.0116585646746197e+00 1.3948031288726652e+00 -8.5356198258098672e+00 0 0 0
2773 1 2 3.6916552287129596e+00 1.8017340787979903e+00 -8.7449303782368304e+00 0 0 0
2679 1 1 2.5100878450221757e+00 2.1635463863379583e+00 -8.7750117591685974e+00 0 0 0
2680 1 1 2.2565474280734992e+00 2.6284456309039865e+00 -7.9974109254145178e+00 0 0 0
2681 1 2 2.2051483486680730e+00 3.5771134568113268e+00 -8.2318030710685743e+00 0 0 0
2692 1 2 2.6033288954607428e+00 1.5996196561217819e+00 -7.6647624516877588e+00 0 0 0
2691 1 1 3.2079714813162705e+00 2.3450308743494226e+00 -7.8791121690348191e+00 0 0 0
2772 1 1 4.6026279364122518e+00 1.9363862793524831e+00 -8.5424335686047144e+00 0 0 0
2659 1 2 5.6704208462400763e+00 1.3905266618824779e+00 -7.7874785836119234e+00 0 0 0
2660 1 2 5.4092426906117375e+00 2.2834190442776801e+00 -7.7336565682158849e+00 0 0 0
2661 1 1 4.6533073939481326e+00 2.7795697156555930e+00 -7.8325956497888596e+00 0 0 0
3276 1 2 -3.1859032808941139e+00 4.1598392247871043e+00 -7.6199585272612511e+00 0 0 0
3238 1 1 -1.5113818168568423e+00 4.5519185501491330e+00 -7.8268666120175041e+00 0 0 0
3275 1 2 -2.6575488066860844e+00 4.9301445992702266e+00 -7.7711407260347789e+00 0 0 0
2372 1 1 9.3989326813348639e-01 4.4480103987874422e+00 -8.2607851064236009e+00 0 0 0
3747 1 2 2.0095347372524421e+00 4.6102286984378020e+00 -7.8397689323915216e+00 0 0 0
2924 1 2 -2.7517926475238319e+00 -7.1014319053046799e+00 -5.3254910537023825e+00 0 0 0
2173 1 1 -1.5775550693783362e+00 -7.1084487624551480e+00 -5.3859360697041208e+00 0 0 0
2307 1 1 -9.1465382511403670e-01 -7.0268636579570583e+00 -6.1993709629296410e+00 0 0 0
2306 1 2 -3.4936717886526314e-01 -7.0029991228367621e+00 -5.3787946207072483e+00 0 0 0
2305 1 2 -7.5277042418647011e-01 -7.9177316283758623e+00 -5.4990012325322786e+00 0 0 0
1560 1 1 7.0635183326805007e-01 -7.6509246866469072e+00 -5.6136008112695421e+00 0 0 0
2149 1 1 7.3882491284623408e-01 -7.1324483708062107e+00 -7.0795011447719123e+00 0 0 0
2150 1 2 1.3809108619449291e+00 -6.9597668963465802e+00 -6.3997104525984723e+00 0 0 0
2147 1 1 3.1608842227013800e-01 -6.7695175655097586e+00 -6.1720687876983051e+00 0 0 0
1561 1 2 9.5406380711070582e-01 -6.8897529959962354e+00 -5.1257766164639920e+00 0 0 0
2090 1 2 3.0223696895395360e+00 -7.2211904626657457e+00 -5.2369098286080344e+00 0 0 0
3043 1 2 -6.7281294220717740e+00 -4.8323435618002542e+00 -5.3124466508594104e+00 0 0 0
2986 1 2 -4.1224117703003209e+00 -4.1388116246421021e+00 -7.1354349885401236e+00 0 0 0
2921 1 1 -4.4192855251556598e+00 -6.5144202262265933e+00 -5.1006156081638405e+00 0 0 0
3054 1 2 -4.6290702562902073e+00 -5.5728075595866038e+00 -6.1083428684708370e+00 0 0 0
2993 1 2 -4.6335232341488517e+00 -4.4837200388237139e+00 -5.2428691308258859e+00 0 0 0
3353 1 2 -5.4960354111103475e+00 -4.8452150709743318e+00 -5.7825329312743019e+00 0 0 0
3352 1 2 -4.7749739433375566e+00 -4.4506644549731034e+00 -6.3289121252544858e+00 0 0 0
3055 1 2 -4.1335355874808544e+00 -5.2898511323231130e+00 -6.7796244620215473e+00 0 0 0
3007 1 2 -5.1443023463634763e+00 -5.6930214509350758e+00 -5.2462957725076000e+00 0 0 0
2922 1 2 -3.7837718372477820e+00 -6.6047606223458164e+00 -5.7756182869240149e+00 0 0 0
2992 1 2 -3.8072050151281518e+00 -4.5930779868975646e+00 -5.7092466363692242e+00 0 0 0
3053 1 2 -4.0304323123412642e+00 -5.6283011785187487e+00 -5.4291170338461914e+00 0 0 0
3008 1 1 -6.0020085807627233e+00 -5.8505450737840379e+00 -5.2289659844901042e+00 0 0 0
2174 1 2 -2.0441423592157744e+00 -6.6322684467436099e+00 -6.1225608912321245e+00 0 0 0
3057 1 1 -3.1287717580174741e+00 -5.5754074524561519e+00 -7.0535899757529679e+00 0 0 0
2923 1 2 -3.0313280990506706e+00 -6.2091018845537720e+00 -5.4066972585310831e+00 0 0 0
3058 1 1 -2.2612237945376887e+00 -5.8852961764992173e+00 -7.0643675398924382e+00 0 0 0
3056 1 2 -3.4010542050569486e+00 -5.3482078876082619e+00 -6.1905266556223619e+00 0 0 0
2988 1 1 -2.4213815062631037e+00 -4.9081334518755835e+00 -6.6662244355561278e+00 0 0 0
2989 1 1 -2.3945798874472093e+00 -5.5830612624081999e+00 -6.0523245712072011e+00 0 0 0
2987 1 2 -3.2688796965580038e+00 -4.5022646664601753e+00 -6.7727163563790045e+00 0 0 0
3069 1 1 -1.6067660886569994e+00 -4.8724468567850980e+00 -5.6577372172217535e+00 0 0 0
2990 1 2 -2.6416460531033903e+00 -4.6945956939068321e+00 -5.6470325209434948e+00 0 0 0
2175 1 1 -1.4503219999929411e+00 -5.9702692074588821e+00 -5.7200988186432928e+00 0 0 0
3059 1 1 -1.6656308050322901e+00 -5.3266464784868877e+00 -7.4787488332561498e+00 0 0 0
3068 1 1 -1.1965943740043323e+00 -5.1760631867432636e+00 -6.5462002955909293e+00 0 0 0
3067 1 1 -1.3670841245408014e+00 -4.2537839579186603e+00 -6.4197237722493092e+00 0 0 0
3061 1 1 -9.8229616367987960e-01 -4.5083081337312736e+00 -7.5199162558383490e+00 0 0 0
2308 1 1 -1.1466975220208131e+00 -6.2309649842017576e+00 -6.7397160439156361e+00 0 0 0
3063 1 2 -1.9405504625790149e+00 -4.1457108697063010e+00 -7.2820129056353755e+00 0 0 0
3070 1 2 -1.1087026600305188e+00 -4.2382585981382457e+00 -5.1276900469288718e+00 0 0 0
2148 1 1 -8.0224345539541570e-03 -6.5226044315266050e+00 -7.1076261878361588e+00 0 0 0
3083 1 2 6.2767216008356308e-01 -5.1687591124293162e+00 -7.2485994181687206e+00 0 0 0
2146 1 2 5.9334097084849857e-01 -6.0284805858450285e+00 -5.6767605138402217e+00 0 0 0
2309 1 1 -4.4068606486196704e-01 -6.0916274714225072e+00 -6.1175348934087470e+00 0 0 0
2314 1 1 -4.1906918631999152e-01 -5.5581593286785829e+00 -7.1650530708830624e+00 0 0 0
2312 1 1 2.0536372222794330e-01 -5.1809681332287632e+00 -6.2837900840999970e+00 0 0 0
2310 1 2 -5.4009558501666877e-01 -5.3864554389128818e+00 -5.5036104535490065e+00 0 0 0
2311 1 2 -4.4619876066892566e-01 -4.5621706608213435e+00 -5.8746481880621761e+00 0 0 0
2313 1 2 -2.5574099261708960e-01 -4.5985807696272527e+00 -6.8421061475639871e+00 0 0 0
2005 1 1 5.8118190784895463e-01 -4.2232302889920481e+00 -6.0881449821357645e+00 0 0 0
3082 1 1 1.1938943207366124e+00 -4.5592240585982360e+00 -6.8708966433192984e+00 0 0 0
3084 1 1 8.2693227903301636e-01 -5.9771016659587248e+00 -6.7148098900258644e+00 0 0 0
3092 1 1 1.3402252323874317e+00 -5.2445033996214887e+00 -6.0640857531964896e+00 0 0 0
2151 1 2 1.6974560695929706e+00 -6.2323050164009013e+00 -5.8140141143706900e+00 0 0 0
3086 1 1 1.8178130649608901e+00 -5.5627331578801131e+00 -6.9445644853941833e+00 0 0 0
3085 1 1 1.3931511337266120e+00 -6.1991103485873627e+00 -7.5028683601073016e+00 0 0 0
3093 1 2 1.6066973330180534e+00 -4.3610369207054509e+00 -5.8809826834580461e+00 0 0 0
2159 1 2 5.2586319525165537e-01 -4.8843284523473018e+00 -5.3165329400384884e+00 0 0 0
2152 1 2 1.3637465926352934e+00 -5.8298061789138522e+00 -5.0582848826343119e+00 0 0 0
2089 1 1 2.6702493393595930e+00 -6.5996979425715585e+00 -5.8167314904587748e+00 0 0 0
2066 1 2 3.6820610033344918e+00 -6.4454925128568723e+00 -5.8346844002910583e+00 0 0 0
3087 1 1 2.2482172968635101e+00 -6.4549517178620111e+00 -6.8871303343862715e+00 0 0 0
3090 1 2 2.6629219751677500e+00 -5.6589130681195510e+00 -6.3002135605134253e+00 0 0 0
3089 1 2 3.4959462881915937e+00 -5.9047454255980645e+00 -6.7657844581452089e+00 0 0 0
3088 1 2 2.7192177517918137e+00 -5.7904070177302662e+00 -7.3441756700072771e+00 0 0 0
3091 1 1 2.1473850945344393e+00 -5.2801571749535547e+00 -5.5934541370955433e+00 0 0 0
3094 1 2 2.5569287822036224e+00 -4.3753925095804300e+00 -6.0282004862069467e+00 0 0 0
1954 1 2 2.4771386165377427e+00 -4.5965745220759819e+00 -7.4121214289768078e+00 0 0 0
1955 1 2 3.1869642863272891e+00 -4.8500420297762581e+00 -6.8152605447982442e+00 0 0 0
3096 1 2 3.3087853605828594e+00 -4.6222911710105938e+00 -5.2382224777256203e+00 0 0 0
3097 1 1 3.2071263146717333e+00 -5.5861247811412147e+00 -5.3048099006030478e+00 0 0 0
2063 1 2 3.8775040645339258e+00 -5.1337563256950416e+00 -6.0019023546809454e+00 0 0 0
1956 1 1 4.0629728889506431e+00 -4.9756522760957536e+00 -7.0468586775675526e+00 0 0 0
2064 1 2 4.2580853791912512e+00 -5.6343731675203701e+00 -5.2323463765727940e+00 0 0 0
2062 1 1 4.5661695982871953e+00 -4.4837614875574028e+00 -6.1649787736993993e+00 0 0 0
3095 1 2 2.4147373684402282e+00 -4.2067361435775634e+00 -5.1076901879340637e+00 0 0 0
2074 1 2 4.4651001813169424e+00 -4.6724695925688886e+00 -5.1114802180477170e+00 0 0 0
2065 1 2 4.6129059718612382e+00 -6.1092797582172391e+00 -5.9515123997573873e+00 0 0 0
2061 1 1 5.0424745542842011e+00 -5.2505911037748980e+00 -6.4844889866866620e+00 0 0 0
2060 1 2 5.1994228264842830e+00 -5.1555041585620405e+00 -5.5828677594592415e+00 0 0 0
1941 1 1 5.6449239364696506e+00 -4.3282166993707554e+00 -6.2676624159996823e+00 0 0 0
1943 1 1 4.9434311234901882e+00 -4.3658527079738079e+00 -7.2415494855820803e+00 0 0 0
1942 1 2 5.8866612620511054e+00 -4.1107273206716783e+00 -7.1991180535668091e+00 0 0 0
2098 1 1 6.1356858673465977e+00 -4.4247546150647041e+00 -5.2549063320517799e+00 0 0 0
3042 1 1 -6.8578078244529976e+00 -3.8889374398514853e+00 -5.4086855190362808e+00 0 0 0
3416 1 1 -7.9306978224312150e+00 -2.0629634097511143e+00 -5.2467968585113027e+00 0 0 0
3359 1 1 -7.1571743003644963e+00 -2.8491924223666643e+00 -5.5002013314971592e+00 0 0 0
3358 1 2 -7.0451607701548138e+00 -2.1063261335339303e+00 -6.0705634462449654e+00 0 0 0
3313 1 2 -5.3115416608964603e+00 -1.4754571471843090e+00 -7.3267508199921823e+00 0 0 0
3354 1 2 -5.5644719109347323e+00 -3.8765747928554659e+00 -5.6996210388287265e+00 0 0 0
2953 1 2 -3.9409639211130782e+00 -3.1640577443050626e+00 -7.4147759838239011e+00 0 0 0
3351 1 2 -4.3554243683810592e+00 -3.6235155099063823e+00 -5.9427340230555963e+00 0 0 0
3355 1 2 -6.1939957534659236e+00 -3.1398508250788857e+00 -5.8657316309370424e+00 0 0 0
3350 1 2 -5.0510717930102844e+00 -3.3938626722294671e+00 -6.5440035362390452e+00 0 0 0
3309 1 2 -4.7789349559860570e+00 -2.5072487967563553e+00 -7.2412227591100118e+00 0 0 0
3357 1 2 -6.1215991132915502e+00 -2.1428292697949307e+00 -5.6967910403491793e+00 0 0 0
3347 1 2 -6.3122948975024125e+00 -1.7771910461368452e+00 -6.7653976532658078e+00 0 0 0
3348 1 2 -5.5486484899364230e+00 -2.4032447923459603e+00 -6.5543819362962576e+00 0 0 0
3349 1 2 -5.1817895823439697e+00 -2.8113723225654166e+00 -5.7742191250263630e+00 0 0 0
3299 1 1 -4.8737125554992922e+00 -1.8452512618020727e+00 -5.8086171073892432e+00 0 0 0
3300 1 2 -4.4246928694636480e+00 -1.5975436904251634e+00 -6.6620190043662530e+00 0 0 0
3308 1 2 -4.3548778887241779e+00 -2.6662600527983007e+00 -6.4201964407056105e+00 0 0 0
3298 1 2 -3.9169976604370382e+00 -1.9329977886424445e+00 -5.7734493061780290e+00 0 0 0
2991 1 2 -3.1133570374754331e+00 -3.9058608921605962e+00 -5.6825071183076030e+00 0 0 0
2952 1 1 -3.5326634690706378e+00 -3.4845199372236975e+00 -6.5906165202039624e+00 0 0 0
3064 1 1 -2.3882654232141305e+00 -3.8281675856860651e+00 -6.5548262300795885e+00 0 0 0
3305 1 1 -2.6135935342893113e+00 -1.9445913184860757e+00 -7.1793101444378049e+00 0 0 0
3307 1 2 -3.5392987320503315e+00 -2.2812281455820016e+00 -6.8721755101752073e+00 0 0 0
2950 1 2 -2.5934921920988847e+00 -2.8643775713319402e+00 -5.6979745862666604e+00 0 0 0
3065 1 2 -1.6588480515317279e+00 -3.1618967456294294e+00 -6.4002461394385106e+00 0 0 0
2951 1 2 -3.4849589228200419e+00 -2.8892707726457969e+00 -5.8969574162823495e+00 0 0 0
3306 1 2 -2.7272396178760481e+00 -2.8280278729153858e+00 -6.8127822781786715e+00 0 0 0
2949 1 2 -1.7548702458466614e+00 -3.0035769595825270e+00 -5.2583395642617852e+00 0 0 0
3297 1 2 -2.9823431172183588e+00 -1.8679183462754427e+00 -6.0951334432616040e+00 0 0 0
3296 1 2 -2.0771997383608634e+00 -2.0161479430587885e+00 -6.2332483180097418e+00 0 0 0
2797 1 2 -2.3289611544389355e+00 -1.9584669304475917e+00 -5.1757695944220368e+00 0 0 0
2948 1 2 -2.0351047517332654e+00 -3.8440502922488018e+00 -5.5884509832946616e+00 0 0 0
3295 1 2 -1.6332310755718056e+00 -2.2701033821879646e+00 -7.0733168129103303e+00 0 0 0
3294 1 1 -1.2279202602700334e+00 -1.4768790672374028e+00 -6.7607944456895153e+00 0 0 0
3062 1 2 -1.0585139735073414e+00 -3.6643083302688861e+00 -7.1962750007137108e+00 0 0 0
3066 1 2 -9.2929500176500079e-01 -3.5153386652497427e+00 -5.9761439654054804e+00 0 0 0
1991 1 1 -1.1485452982372597e+00 -2.3599703418609428e+00 -5.9143804309002030e+00 0 0 0
2006 1 2 2.2535162908266701e-01 -3.8334943476108676e+00 -5.2924811303455987e+00 0 0 0
2960 1 2 -5.6932319453049596e-01 -1.9749507958062822e+00 -7.4043329794510679e+00 0 0 0
2318 1 2 1.3544053570605707e-01 -2.9402034719998560e+00 -7.5139535276247935e+00 0 0 0
2319 1 1 4.1030087708670149e-01 -2.0112371814311674e+00 -7.4192580473782233e+00 0 0 0
2338 1 2 1.2375822361926074e+00 -2.6829219956368928e+00 -7.3038051412290903e+00 0 0 0
3081 1 2 7.6855093785485129e-01 -3.7452114360230779e+00 -7.0491764202646925e+00 0 0 0
3080 1 2 -6.4233973995169178e-03 -3.5186678919935899e+00 -6.5667352848190976e+00 0 0 0
2004 1 2 1.0391965290072553e+00 -3.4176988058191990e+00 -5.9403866687605626e+00 0 0 0
3079 1 2 3.9846453961930800e-01 -2.6651478728246403e+00 -6.5317842031116289e+00 0 0 0
1992 1 1 -6.7339322211869557e-01 -2.6713664482153718e+00 -6.6962383205754428e+00 0 0 0
3078 1 2 -5.7749012282530453e-02 -2.8480601220262010e+00 -5.6491943702879244e+00 0 0 0
1990 1 2 -5.8753730138214721e-01 -1.9772244096594818e+00 -5.2820724504114969e+00 0 0 0
1993 1 2 -3.2560631822161634e-01 -1.8207010795767091e+00 -6.3084397552738816e+00 0 0 0
2002 1 2 6.0757576707013916e-01 -1.9214117948966203e+00 -5.8724668489278358e+00 0 0 0
2003 1 2 1.0431765224599472e+00 -2.6324708763252014e+00 -5.4063921045238148e+00 0 0 0
2340 1 2 1.7663132405194841e+00 -3.6994550884708373e+00 -6.7454907957842156e+00 0 0 0
2784 1 1 1.3778824228061448e+00 -1.7382543247307138e+00 -6.6733147062479725e+00 0 0 0
2339 1 2 1.7072463658195516e+00 -2.7552394068712007e+00 -6.4758202657744777e+00 0 0 0
2785 1 2 1.8276913496161602e+00 -1.8152679520439925e+00 -5.8146587739288931e+00 0 0 0
2008 1 1 1.3863647244769828e+00 -3.7364302087768784e+00 -5.0756055277605476e+00 0 0 0
2337 1 2 2.2241206982173165e+00 -2.7440918293726875e+00 -7.4715766375202319e+00 0 0 0
1958 1 1 3.8914148930709129e+00 -3.8945304853051730e+00 -7.1525502878482969e+00 0 0 0
1959 1 2 3.5351442225063003e+00 -3.9045746107325745e+00 -6.1967928703134065e+00 0 0 0
1965 1 2 3.1637836751765480e+00 -2.4618297927832260e+00 -7.0890178537314652e+00 0 0 0
2010 1 2 2.9300560394691360e+00 -3.3434737794899356e+00 -5.2893713927159274e+00 0 0 0
1960 1 2 2.7692993027155453e+00 -3.3991184192669506e+00 -6.4568581176742796e+00 0 0 0
2009 1 2 2.0424718508201010e+00 -3.2988524569346906e+00 -5.5960425546729757e+00 0 0 0
1961 1 2 2.6812121711931622e+00 -2.4918793485750887e+00 -6.1018100155684651e+00 0 0 0
1962 1 2 2.8426489853088834e+00 -1.5704186938447433e+00 -6.0794735623462257e+00 0 0 0
2783 1 2 2.2679792234470360e+00 -1.9354682371019150e+00 -6.8726948161887851e+00 0 0 0
1963 1 2 3.3410362454330724e+00 -1.4416539561863746e+00 -6.9220812796230717e+00 0 0 0
1925 1 2 3.4412768609109365e+00 -1.6515616575906633e+00 -5.2409074359465881e+00 0 0 0
1928 1 2 3.7385937269475260e+00 -2.7311723617766375e+00 -5.8932684093612497e+00 0 0 0
2075 1 2 4.1080496480414013e+00 -3.8240071015443560e+00 -5.2905811368035156e+00 0 0 0
1980 1 2 3.9959946512905660e+00 -1.7901806808387737e+00 -6.1077744428427474e+00 0 0 0
1966 1 1 4.1116748025947922e+00 -2.6171347536281528e+00 -6.9701858761717164e+00 0 0 0
1929 1 2 4.4391043917686792e+00 -3.4101375520116792e+00 -6.1958438650999916e+00 0 0 0
1940 1 1 5.2562045383314882e+00 -3.8630697270217986e+00 -5.5449841574988401e+00 0 0 0
1930 1 1 5.2400346304584717e+00 -3.2510929036338774e+00 -6.6469387508944884e+00 0 0 0
1931 1 2 6.0800526777066306e+00 -3.0165471583361838e+00 -6.9336996495558605e+00 0 0 0
1939 1 2 4.8858294825505100e+00 -3.0383294380306420e+00 -5.3296612726295214e+00 0 0 0
1967 1 1 4.9238025090587083e+00 -2.3289204321639021e+00 -7.3697072876715026e+00 0 0 0
1936 1 2 5.7353809773308351e+00 -1.8546971600091431e+00 -5.1960182529880230e+00 0 0 0
1978 1 2 4.8828500910149648e+00 -2.3758858047051548e+00 -6.2527375985155986e+00 0 0 0
1979 1 2 4.5954700252028138e+00 -1.9685346880858225e+00 -5.3563429226646155e+00 0 0 0
1977 1 2 5.6588236188149370e+00 -1.7781266251220951e+00 -6.2478899128325214e+00 0 0 0
1935 1 2 5.8880379788724353e+00 -2.6876308628929291e+00 -5.6494139509507919e+00 0 0 0
1932 1 2 6.1849848876060074e+00 -3.5465201343860930e+00 -6.1902614168159014e+00 0 0 0
1975 1 2 7.1840491892449858e+00 -1.7866853034867551e+00 -5.9084540637058716e+00 0 0 0
1934 1 2 6.7238128358797429e+00 -2.5302634596435420e+00 -5.2117993915434120e+00 0 0 0
2100 1 1 7.0183272154948702e+00 -3.7219651815584665e+00 -5.4992143436093537e+00 0 0 0
1933 1 2 6.8345335047903317e+00 -2.7570585698619308e+00 -6.0934659864787912e+00 0 0 0
1976 1 1 6.5056432297086673e+00 -1.8310447172398325e+00 -6.6620761906036838e+00 0 0 0
3417 1 1 -7.8237170609635989e+00 -1.3090986751076623e+00 -5.8902773329493172e+00 0 0 0
3346 1 1 -6.7810043930167607e+00 -9.9033480733667156e-01 -6.5284146906567377e+00 0 0 0
3418 1 2 -7.5625334280542162e+00 -4.1834056081420701e-01 -5.6971174164467122e+00 0 0 0
3427 1 2 -7.7784082248582544e+00 5.9413270267691531e-01 -5.4243791822154392e+00 0 0 0
3428 1 1 -7.0871812921497046e+00 9.4402355626345180e-01 -6.0753955502345045e+00 0 0 0
3419 1 2 -6.8233920060310220e+00 3.9609001405378902e-02 -5.3312918866265813e+00 0 0 0
3343 1 1 -6.4573322214292181e+00 1.1011865192116388e+00 -6.8918971015002661e+00 0 0 0
3374 1 2 -6.6381631529920115e+00 -1.1262264843690892e+00 -5.4768937752837790e+00 0 0 0
3345 1 2 -6.9036098177170926e+00 -3.0086321608690823e-02 -6.4688984478646221e+00 0 0 0
3425 1 2 -6.5235155116509462e+00 1.2596257481126996e+00 -5.1801444805818448e+00 0 0 0
3314 1 1 -5.8501368797685149e+00 -7.0164481565245529e-01 -7.0587735679422696e+00 0 0 0