LAMMPS data file via write_data, version 16 Mar 2018, timestep = 0

4000 atoms
2 atom types
3999 bonds
1 bond types

-9.2940163930539761e+00 9.7640320386373975e+00 xlo xhi
-9.0316299043069321e+00 9.5039356959344161e+00 ylo yhi
-9.6170595274528967e+00 9.4729913147898426e+00 zlo zhi

Masses

1 1
2 1

Atoms # bond

199 1 1 -8.1605335473138985e-01 -6.7499277736401124e+00 -7.0857715522686826e+00 0 0 0
180 1 1 -4.3296397651467338e+00 -5.3243965952050658e+00 -7.2013224547541421e+00 0 0 0
179 1 2 -4.8652181775286225e+00 -4.5224268517275403e+00 -7.1917027038098178e+00 0 0 0
181 1 1 -3.7310012460290292e+00 -4.5556103683413349e+00 -7.5098910177724090e+00 0 0 0
194 1 1 -1.4182326569663626e+00 -5.9173149856551497e+00 -8.2344992620143955e+00 0 0 0
183 1 2 -2.3075908705444932e+00 -4.9500731650063861e+00 -7.7519079067022432e+00 0 0 0
184 1 2 -1.6962468296458924e+00 -5.0163787669692601e+00 -8.5328338043189778e+00 0 0 0
189 1 1 -1.2721426086393059e+00 -4.7848800758190482e+00 -7.3467339263627975e+00 0 0 0
182 1 2 -2.9905640699031411e+00 -4.4972330736131267e+00 -8.1226814307426114e+00 0 0 0
176 1 2 -2.7696786907091453e+00 -4.2762133020249706e+00 -7.1240224642365950e+00 0 0 0
111 1 2 -1.9375825426764788e+00 -3.9806750605792587e+00 -7.6844226994250988e+00 0 0 0
112 1 1 -2.0059577583676997e+00 -3.9830150978017578e+00 -8.6556095973369107e+00 0 0 0
167 1 1 -3.1238426561136383e+00 -5.3681315003414847e+00 -7.1192140445788406e+00 0 0 0
193 1 1 -2.0205216545003810e+00 -5.9035541837862704e+00 -7.4567088411554625e+00 0 0 0
195 1 1 -8.1951463948866332e-01 -5.7797421961161106e+00 -7.5121784148288286e+00 0 0 0
186 1 2 -4.0966733894241497e-01 -5.0009877017442124e+00 -8.3327166254529494e+00 0 0 0
187 1 2 -1.5978168210903795e-01 -4.9127356307041490e+00 -7.4277687912368764e+00 0 0 0
146 1 2 7.3904707838959205e-01 -5.8145440204796612e+00 -7.5784386252327618e+00 0 0 0
145 1 2 1.5902448406708467e+00 -5.3737888716092446e+00 -7.4504206888662976e+00 0 0 0
144 1 2 1.5144180525184165e+00 -4.3821302627827965e+00 -7.1398355789512200e+00 0 0 0
135 1 2 6.5658850251493850e-01 -4.0293675074828093e+00 -8.6185129451930713e+00 0 0 0
136 1 1 7.6501382235613336e-01 -4.6564817652385031e+00 -7.8627960463181132e+00 0 0 0
185 1 2 -1.0503459865427298e+00 -4.3198789766362022e+00 -8.1982937467395534e+00 0 0 0
131 1 2 4.6911432501674016e-01 -4.0659283456116970e+00 -6.9620825919371212e+00 0 0 0
188 1 2 -6.3942363598793917e-01 -4.2532946269067340e+00 -6.9215192675317301e+00 0 0 0
133 1 1 -1.2480712975265461e-01 -3.9363972527142703e+00 -7.9190836461164738e+00 0 0 0
257 1 2 3.4451704581343061e+00 -5.1955549514661330e+00 -7.4341253311564284e+00 0 0 0
137 1 1 1.6361970656400961e+00 -4.6634742773829032e+00 -8.2336981954652391e+00 0 0 0
139 1 1 3.1670355221692943e+00 -4.5243671681882276e+00 -8.2099526836941248e+00 0 0 0
141 1 2 2.4958401200588796e+00 -4.0699289827269505e+00 -7.5690228598039990e+00 0 0 0
138 1 2 2.4317510393309090e+00 -5.0572668078301017e+00 -8.0713186967576149e+00 0 0 0
258 1 1 2.7739391476193953e+00 -5.7667442770413961e+00 -6.9416058475416014e+00 0 0 0
142 1 2 2.5582654726638108e+00 -4.7700048556543226e+00 -6.9571734627240556e+00 0 0 0
140 1 2 3.4462826061720109e+00 -4.1867301369192056e+00 -7.3226632340906894e+00 0 0 0
509 1 2 4.5677497866418078e+00 -4.2011096370690719e+00 -7.3019990292785470e+00 0 0 0
263 1 2 5.7938710480816260e+00 -4.3959767607620677e+00 -6.9284426310341676e+00 0 0 0
2085 1 2 -4.0994972034307118e+00 -3.1128963272205499e+00 -7.5693753232187575e+00 0 0 0
2084 1 2 -4.9048529392074922e+00 -3.2940171306687209e+00 -8.0779123850307197e+00 0 0 0
2083 1 1 -5.6301673225662432e+00 -2.6696852794788373e+00 -7.5995152388119536e+00 0 0 0
74 1 1 -3.9582661368026852e+00 -2.0940101952742887e+00 -8.9369428767347578e+00 0 0 0
72 1 1 -4.8218128588625770e+00 -2.1136582295357753e+00 -7.4691670953848446e+00 0 0 0
73 1 1 -4.6813397615061589e+00 -2.2271854316109181e+00 -8.3642585208535074e+00 0 0 0
76 1 2 -4.1952322586042827e+00 -1.2756292458689276e+00 -8.1593693618945782e+00 0 0 0
77 1 1 -4.0693991194444479e+00 -1.1416566093258294e+00 -7.2066968441716499e+00 0 0 0
71 1 2 -5.4926945513187420e+00 -1.5248474864776917e+00 -7.1985620394400582e+00 0 0 0
66 1 1 -5.6507321830827451e+00 -3.5762820589847379e+00 -6.9156470834961867e+00 0 0 0
2086 1 2 -3.8185986649082100e+00 -2.2053467453817102e+00 -7.5045805843262245e+00 0 0 0
2089 1 1 -3.3083334878913573e+00 -2.7875604525632141e+00 -8.4425877751948608e+00 0 0 0
2088 1 2 -3.0952027991502309e+00 -3.4810019266234797e+00 -7.8123811920069386e+00 0 0 0
2090 1 2 -2.8601051592003341e+00 -2.2144770114502079e+00 -9.0550846603921098e+00 0 0 0
110 1 2 -1.1494079426222101e+00 -3.5791902201685946e+00 -7.4745716224780132e+00 0 0 0
113 1 2 -2.2227538093303507e+00 -3.1365537976489808e+00 -8.2698897413108376e+00 0 0 0
2087 1 2 -3.1217462163501777e+00 -2.7268971949417162e+00 -7.2248520551263686e+00 0 0 0
114 1 2 -2.0330618146401074e+00 -3.0736918447964867e+00 -7.2889680025192813e+00 0 0 0
2091 1 2 -1.9313321879182288e+00 -2.2194262002676592e+00 -8.8482967837381263e+00 0 0 0
93 1 2 -2.4218259510125275e+00 -2.2071506551885993e+00 -7.8622659629782898e+00 0 0 0
92 1 1 -1.4289676545937096e+00 -2.3260130075966572e+00 -7.7537377663189160e+00 0 0 0
94 1 2 -2.2863535295896744e+00 -2.0453343590380637e+00 -6.9400084451788535e+00 0 0 0
91 1 2 -1.1573237582890319e+00 -1.4755223028661024e+00 -7.4068262262492448e+00 0 0 0
491 1 2 -1.1906385103994270e+00 -3.1916299356281854e+00 -8.5072097221593364e+00 0 0 0
75 1 2 -3.3808112971809927e+00 -1.3628636809373118e+00 -8.7379694548416502e+00 0 0 0
2092 1 2 -2.2433675547916607e+00 -1.3314965650814261e+00 -9.0881688852630020e+00 0 0 0
2093 1 2 -1.9317299401284334e+00 -1.2971749563950001e+00 -8.1878277911998030e+00 0 0 0
95 1 2 -2.2472184300649380e+00 -1.1635800200121684e+00 -7.1303023614323502e+00 0 0 0
96 1 2 -3.0594672824486326e+00 -1.4531484369690455e+00 -7.6084809331330030e+00 0 0 0
490 1 2 -4.6607328295815337e-01 -2.8978769770394059e+00 -8.0423741385982073e+00 0 0 0
460 1 2 -8.1010560499194106e-01 -1.7069729573228616e+00 -8.3986293928977531e+00 0 0 0
489 1 2 -4.0261736481498017e-01 -2.8735484514571059e+00 -7.1128782118743077e+00 0 0 0
134 1 2 -1.9419229434276128e-01 -3.5945695840240464e+00 -8.8002666111894889e+00 0 0 0
494 1 2 1.0004423506570890e+00 -2.9216387825375030e+00 -8.3743138099068855e+00 0 0 0
493 1 2 3.8743152552019355e-01 -2.3619733813256740e+00 -8.7818903495961802e+00 0 0 0
495 1 2 1.4978401482284198e+00 -3.5988201941275149e+00 -7.8482018688961501e+00 0 0 0
499 1 2 1.4334300807464466e+00 -2.6438647519781733e+00 -7.3121788980846532e+00 0 0 0
470 1 2 1.2506197328643702e+00 -1.7488346801758474e+00 -8.3479753352029018e+00 0 0 0
492 1 1 -5.6832645772656043e-01 -2.6362452379253112e+00 -9.0667694472371618e+00 0 0 0
487 1 2 3.8058093627788253e-01 -2.1937220179184118e+00 -7.7587465132763134e+00 0 0 0
132 1 2 4.9276009767873868e-01 -3.2996833492482707e+00 -7.5158941249259792e+00 0 0 0
469 1 1 1.5320562066666623e+00 -2.1934373423917926e+00 -9.1381234423611861e+00 0 0 0
90 1 2 -2.8445764677385882e-01 -1.7458492575848958e+00 -7.0723055557966346e+00 0 0 0
486 1 2 7.1880753767991967e-01 -1.3841144464991084e+00 -7.5548688702773115e+00 0 0 0
461 1 2 -1.0839108015017511e+00 -1.1405605583737242e+00 -9.1826514293027017e+00 0 0 0
462 1 1 -3.6346784489229367e-01 -1.6431981791498893e+00 -9.5010090188407847e+00 0 0 0
468 1 1 7.4451379375044968e-01 -1.6772145343020064e+00 -9.4214846318198653e+00 0 0 0
464 1 2 1.1333624586790035e-01 -1.3904088059655244e+00 -8.4590549714515149e+00 0 0 0
485 1 2 1.6603417063787951e+00 -1.5385291472772400e+00 -7.2841099661802113e+00 0 0 0
471 1 1 2.0564790124691417e+00 -1.3392151218284067e+00 -8.6540488547063461e+00 0 0 0
498 1 2 2.2786962542953693e+00 -3.1078810878140217e+00 -7.2247145050050827e+00 0 0 0
496 1 1 2.0970666635322703e+00 -3.0117600526083375e+00 -8.3313414779869959e+00 0 0 0
497 1 2 2.9611460729316983e+00 -2.8817262461878603e+00 -7.9066328402964352e+00 0 0 0
473 1 1 2.7294954748192000e+00 -2.2789283294939735e+00 -8.8001094466060721e+00 0 0 0
508 1 2 4.0416142507743738e+00 -3.3878356002864849e+00 -7.5247571149838421e+00 0 0 0
7 1 2 3.1401053381817996e+00 -1.7885615130888131e+00 -7.3588489433783941e+00 0 0 0
475 1 2 3.8521031182735110e+00 -2.1650959936833143e+00 -7.9933092284180320e+00 0 0 0
476 1 2 4.2739706263217112e+00 -1.3546317728511488e+00 -7.8283639683797812e+00 0 0 0
474 1 2 3.2499747071475409e+00 -1.5095519066864507e+00 -8.4293719051851728e+00 0 0 0
472 1 2 2.2346747933400284e+00 -2.0419309635965295e+00 -8.0092552584991896e+00 0 0 0
507 1 2 4.8029852753356552e+00 -2.9965240539824776e+00 -7.1889297601014368e+00 0 0 0
516 1 1 5.8275795619982809e+00 -3.2503670182209174e+00 -6.9916919919863663e+00 0 0 0
517 1 1 6.4879322371686552e+00 -2.6141156734491986e+00 -7.2195265559593951e+00 0 0 0
521 1 2 5.4828956991810038e+00 -2.2599385865066361e+00 -7.0266462883160568e+00 0 0 0
519 1 2 6.2776013067045309e+00 -1.5141884142529900e+00 -7.0807320041657329e+00 0 0 0
522 1 2 5.2010459186688456e+00 -1.3668978501589069e+00 -7.1975457892560186e+00 0 0 0
477 1 2 4.3555268953350499e+00 -1.9140616402691015e+00 -7.0061689679853805e+00 0 0 0
80 1 1 -4.3409412823155948e+00 3.0880801932502899e-01 -7.8431583615761227e+00 0 0 0
2361 1 2 -5.0452993464671412e+00 7.7486173948861725e-01 -6.9811118556134968e+00 0 0 0
2359 1 1 -4.3124291608923278e+00 1.3686858031783313e+00 -7.5988479851970672e+00 0 0 0
2363 1 2 -4.9926233969711467e+00 -5.0301311593967024e-01 -7.2679525005390371e+00 0 0 0
2362 1 2 -5.7094310224589533e+00 1.0176522457810699e-01 -7.1891917835101511e+00 0 0 0
79 1 2 -3.6576373839084182e+00 -3.5663368438033344e-01 -7.7550674540871425e+00 0 0 0
78 1 2 -3.3051630959919711e+00 -6.5387942317368253e-01 -6.9175003437471894e+00 0 0 0
2094 1 2 -2.6601451335090975e+00 -6.7321162892690312e-01 -8.1888276381219818e+00 0 0 0
86 1 2 -1.6486207760064928e+00 -4.6407017519954141e-01 -7.5789073733687680e+00 0 0 0
2095 1 2 -2.6295592210050618e+00 2.2047066286962568e-03 -7.5135445617628651e+00 0 0 0
2096 1 2 -2.8803487114712341e+00 3.3411242151043080e-01 -8.3916986056595118e+00 0 0 0
81 1 2 -3.4479885055351298e+00 6.5360609642297718e-01 -7.6182760348030181e+00 0 0 0
2097 1 2 -3.5445702211117283e+00 -2.6702719541955089e-01 -8.8438515629269094e+00 0 0 0
2098 1 1 -2.6098682820654520e+00 -2.9836676055866662e-01 -9.1821978612410931e+00 0 0 0
84 1 2 -1.7956971680725073e+00 6.0111038852438170e-01 -7.9764447455017606e+00 0 0 0
83 1 2 -2.4606109385644985e+00 1.0088308763090235e+00 -7.5126501459208210e+00 0 0 0
2099 1 2 -1.7860887589546541e+00 -3.7564889452497635e-01 -9.6151429056930251e+00 0 0 0
2100 1 1 -1.6333224795393233e+00 -3.2501032925217416e-01 -8.6302896540764014e+00 0 0 0
82 1 1 -3.2314646370847311e+00 1.4604327824374841e+00 -8.0140916965597153e+00 0 0 0
2353 1 1 -1.2920440439706768e+00 1.2072742625566406e+00 -7.2185394074917424e+00 0 0 0
2352 1 1 -1.6667740261425708e+00 4.1926004351386914e-01 -6.8968537050229228e+00 0 0 0
467 1 2 1.1272647124539128e+00 -9.0276714730625873e-01 -8.9695258251334788e+00 0 0 0
85 1 2 -9.5419645411571508e-01 1.7979417415096707e-01 -7.6913854549321234e+00 0 0 0
2101 1 2 -7.4819730982369714e-01 -2.7620365612489064e-02 -8.9822930182808509e+00 0 0 0
459 1 2 -6.9195918532376921e-01 -7.1928756299494057e-01 -8.2143485962833243e+00 0 0 0
463 1 2 6.4069280823542407e-02 -8.0533576580048483e-01 -9.2303309902860793e+00 0 0 0
465 1 2 3.7981589807195926e-01 -5.0183536517107763e-01 -8.1369532002420986e+00 0 0 0
466 1 1 1.2606618799149230e+00 -6.8260599500173214e-01 -8.0719554788327734e+00 0 0 0
443 1 2 -1.0446203790206438e-02 4.5529183305313753e-01 -8.3228086764457760e+00 0 0 0
442 1 2 5.3978083982281688e-01 2.4011459861620091e-01 -9.0885774635183711e+00 0 0 0
458 1 2 -4.9980320907410875e-01 -7.0067012791619177e-01 -7.3672458935565555e+00 0 0 0
441 1 1 1.4087955147134039e+00 1.3214342816582206e-01 -8.7198370783828612e+00 0 0 0
437 1 2 9.0288860037566609e-01 3.5007217625432668e-01 -7.8510582503370454e+00 0 0 0
457 1 2 1.9060745532104479e-03 1.6126369267137011e-01 -7.3044552786500159e+00 0 0 0
436 1 2 7.5222867172719998e-01 1.1304332719522192e+00 -8.3676837736814296e+00 0 0 0
2102 1 2 -9.7449304651384194e-01 7.7660663976201061e-01 -8.5828855507448942e+00 0 0 0
444 1 2 -3.6339136528178656e-01 1.1024501365672164e+00 -7.7173435877062904e+00 0 0 0
2103 1 2 -1.0456812935223398e+00 1.4996844419069626e+00 -9.1392195602927089e+00 0 0 0
382 1 1 9.4220402442481954e-01 -4.9345201932382654e-01 -7.1044350978291568e+00 0 0 0
446 1 2 5.7247632252960812e-01 1.0790240283189951e+00 -7.0422112007602422e+00 0 0 0
438 1 2 1.6075485837639132e+00 1.0133313355023947e+00 -7.5472248116936669e+00 0 0 0
383 1 1 1.8821946246796166e+00 -1.8072482301779966e-01 -7.2022685779941824e+00 0 0 0
440 1 1 2.1908313311399259e+00 1.7527443756460228e-02 -8.2074735951014119e+00 0 0 0
9 1 2 3.4442272362925066e+00 -6.6124184616701243e-01 -7.8185820471899614e+00 0 0 0
8 1 1 2.5411830388385086e+00 -1.0805496991367742e+00 -7.6452928339304123e+00 0 0 0
11 1 1 3.8654033555626941e+00 2.7070148447492393e-01 -8.0217420190591628e+00 0 0 0
12 1 1 2.9847658627927895e+00 3.1571805726166147e-01 -7.5806368843706382e+00 0 0 0
439 1 1 2.3958392946376565e+00 9.8184377321032767e-01 -8.0678420801227677e+00 0 0 0
674 1 1 3.3757076196345883e+00 1.4568473828083153e+00 -7.5721479796958260e+00 0 0 0
10 1 2 4.3237235899011175e+00 -2.5929979112544371e-01 -7.4253728566498935e+00 0 0 0
670 1 1 5.2792686484161528e+00 8.9704956326951191e-01 -7.1422246681138173e+00 0 0 0
671 1 2 4.3486380592846148e+00 7.2458119769009555e-01 -7.0360964959325019e+00 0 0 0
666 1 2 5.7194685475919078e+00 -9.5719837981922934e-02 -6.9014171845739236e+00 0 0 0
2110 1 1 -4.2475566336616932e+00 3.2620677497320036e+00 -7.0761186072018196e+00 0 0 0
2360 1 1 -5.0299107073382014e+00 1.7400589111773359e+00 -7.0919377067609721e+00 0 0 0
2111 1 1 -5.0674712820054237e+00 2.8185320964175657e+00 -7.3748068143187409e+00 0 0 0
2358 1 1 -3.9548274201429936e+00 2.1785332650323261e+00 -7.3423001134249324e+00 0 0 0
2107 1 1 -2.4819840339182595e+00 2.7216385093011977e+00 -8.1235910545142236e+00 0 0 0
2355 1 1 -1.6817704056452405e+00 2.2005904364033420e+00 -7.2709709779024676e+00 0 0 0
2108 1 1 -3.3605212720697839e+00 2.5230570800201342e+00 -8.3186932837666756e+00 0 0 0
2106 1 2 -1.4901643894641587e+00 2.6701506486187991e+00 -8.4475975998831032e+00 0 0 0
2109 1 1 -3.4334314492251332e+00 3.3322415494294373e+00 -7.8185522047514322e+00 0 0 0
428 1 2 -1.8414322291329719e+00 3.4340252926127346e+00 -7.5280268183468229e+00 0 0 0
427 1 2 -2.5066046143893583e+00 3.9364743120505397e+00 -8.0162523059516548e+00 0 0 0
429 1 2 -1.4513489285063488e+00 3.7587138631071575e+00 -8.3485612161593679e+00 0 0 0
2354 1 2 -1.3220629158103712e+00 1.6582173341332445e+00 -8.0149833526133314e+00 0 0 0
2356 1 1 -2.6189017605151710e+00 2.0940239330861354e+00 -7.1834838553476992e+00 0 0 0
2105 1 2 -4.8444983541687159e-01 2.5966113408984053e+00 -8.5089067648236103e+00 0 0 0
2104 1 2 -3.3750385038476632e-01 1.6879506239101729e+00 -8.5693169350763974e+00 0 0 0
434 1 1 8.3761223281864883e-01 2.6298872025612021e+00 -8.3675712338556547e+00 0 0 0
435 1 2 4.5867189265563113e-01 1.9052688736482537e+00 -7.7756597672242247e+00 0 0 0
432 1 2 -4.7487512198485821e-01 2.3095965557424334e+00 -7.3804692610477307e+00 0 0 0
433 1 2 1.9494286464382207e-01 2.8871109439927936e+00 -7.6805009648571003e+00 0 0 0
431 1 2 -7.4946951368401216e-01 3.1730210636848053e+00 -7.7046642927298405e+00 0 0 0
430 1 2 -5.3841450679985048e-01 3.6828149126418159e+00 -8.5071858600657126e+00 0 0 0
394 1 1 7.2917256545022269e-01 3.7130352664447330e+00 -7.9945604476422591e+00 0 0 0
2828 1 2 -6.8758692041175948e-02 3.8217354257737455e+00 -7.2039009285683733e+00 0 0 0
393 1 2 1.5409580911151444e+00 3.2135438859793877e+00 -7.8253717659481765e+00 0 0 0
2680 1 1 9.3452197962088368e-01 3.5481156066023205e+00 -6.9734721243576079e+00 0 0 0
2830 1 1 -1.0831416711230721e+00 3.9312721692330621e+00 -6.9918151293197859e+00 0 0 0
390 1 2 1.7608217939426867e+00 1.6533955574695234e+00 -8.5326486077581780e+00 0 0 0
391 1 1 2.6610732666536023e+00 2.0363237024559124e+00 -8.3897234918361008e+00 0 0 0
392 1 2 2.1416181314600773e+00 2.8370293580898838e+00 -8.4697620721479812e+00 0 0 0
389 1 2 1.6144394584268111e+00 2.1372043324098304e+00 -7.7051771319432332e+00 0 0 0
681 1 2 3.0514312489063937e+00 2.9658253432907911e+00 -7.6908403193325370e+00 0 0 0
682 1 2 2.6392157962718596e+00 3.7932719902103988e+00 -7.8151931125491343e+00 0 0 0
680 1 1 3.9440783553693461e+00 2.6769354906202585e+00 -7.4906640847150054e+00 0 0 0
683 1 1 3.5101415823626843e+00 4.0426656608690879e+00 -7.6161853673936699e+00 0 0 0
675 1 2 2.7559931885031950e+00 2.1150315358590825e+00 -7.2819927200107966e+00 0 0 0
676 1 2 2.1164195268826025e+00 2.7002319404176189e+00 -6.9146190296571088e+00 0 0 0
1319 1 2 2.0467010453725432e+00 4.0107175079590824e+00 -6.8954675977329600e+00 0 0 0
686 1 2 4.5729390340772760e+00 3.5461406561001434e+00 -7.3263300110736838e+00 0 0 0
672 1 2 4.4508709160021978e+00 1.6570169799730110e+00 -7.0728584223166502e+00 0 0 0
687 1 1 4.9529065699030799e+00 2.6528244713774427e+00 -7.0729723042185997e+00 0 0 0
669 1 2 5.5835472157958774e+00 1.7142159324780504e+00 -6.9127043160538930e+00 0 0 0
426 1 2 -2.3783974011722213e+00 4.2771306830611051e+00 -7.0660837190005124e+00 0 0 0
1706 1 1 -3.7429705455755915e+00 4.3061083915076237e+00 -7.1565274445214753e+00 0 0 0
395 1 2 1.4072743694530105e+00 4.3153587333691581e+00 -7.7000928039702554e+00 0 0 0
2829 1 2 -6.2423468990242004e-01 4.4517013993665069e+00 -7.6569994773830681e+00 0 0 0
396 1 2 5.4928960646327174e-01 4.7307320677005595e+00 -7.6197947850119174e+00 0 0 0
400 1 1 3.2614091369593284e-02 5.4606029056982814e+00 -7.0466596518410904e+00 0 0 0
399 1 2 9.4137039550268087e-01 5.6470244545073891e+00 -6.9704788182659767e+00 0 0 0
684 1 2 4.0249012372903508e+00 4.4690769042166272e+00 -6.9192364549326699e+00 0 0 0
398 1 2 1.7222918057836982e+00 5.1651207776695003e+00 -7.1622266100230760e+00 0 0 0
1325 1 2 2.6672624780543259e+00 5.7086765787176805e+00 -7.1846368226154675e+00 0 0 0
3799 1 2 -4.1214432623079320e+00 -7.5616521788942270e+00 -4.6612640523198774e+00 0 0 0
3817 1 2 -4.9595054452142699e+00 -6.6613547017211863e+00 -4.5072446774474644e+00 0 0 0
3808 1 1 -4.1687956443199283e+00 -6.5054521075717702e+00 -5.3729209225642958e+00 0 0 0
3816 1 1 -5.7261822553956474e+00 -7.2686120582500662e+00 -4.4365069905909973e+00 0 0 0
3820 1 1 -6.1468627166792427e+00 -6.3987579379641790e+00 -5.9500201427485058e+00 0 0 0
3806 1 1 -2.5535193563859937e+00 -6.7970767290672969e+00 -5.7175066361587215e+00 0 0 0
3800 1 2 -3.2771353390213949e+00 -7.2886644547432269e+00 -5.0382203188791568e+00 0 0 0
3793 1 2 -2.0176147276149408e+00 -8.0432036290147781e+00 -4.3426333678918807e+00 0 0 0
3435 1 1 -1.2470852988429486e+00 -7.6862596159871650e+00 -5.1397229157217907e+00 0 0 0
3436 1 2 -1.2561465676261792e+00 -7.3438580936223063e+00 -4.2578591594210780e+00 0 0 0
3805 1 1 -2.2080980938610746e+00 -7.1928681783941970e+00 -4.9553375804532847e+00 0 0 0
3792 1 2 -2.9376274243831659e+00 -8.3044877247521711e+00 -4.3180190167732544e+00 0 0 0
164 1 2 -1.5416823288018082e+00 -6.5324677671666791e+00 -5.5813711488139628e+00 0 0 0
3802 1 2 -3.7501120784248716e+00 -6.4915378318650587e+00 -4.3179818124021008e+00 0 0 0
200 1 2 1.1901093422339848e-01 -6.7181431704025192e+00 -6.8539946396497715e+00 0 0 0
198 1 2 -6.9897045170312389e-01 -6.9268240622228667e+00 -6.1635472551802257e+00 0 0 0
201 1 1 9.6319754253346912e-01 -7.2031498423769174e+00 -6.7382765432891265e+00 0 0 0
3434 1 2 -5.6357780800085000e-01 -7.0528552183653508e+00 -5.0265785788488193e+00 0 0 0
3431 1 1 2.7679765333489770e-01 -7.5876276450448525e+00 -6.0513536450670644e+00 0 0 0
3432 1 2 1.5962238801939765e-01 -7.9341151393602116e+00 -5.0953025535587102e+00 0 0 0
208 1 2 1.1892796836226875e+00 -7.8405369612655500e+00 -4.3829788653566180e+00 0 0 0
203 1 1 1.0521406997085188e+00 -7.3147166863169790e+00 -5.4004665855333096e+00 0 0 0
3433 1 2 3.3725517414754336e-01 -7.0068653240391408e+00 -4.7159016987386275e+00 0 0 0
3430 1 2 2.8837523867564391e-01 -6.6592914105124699e+00 -5.7579815245967430e+00 0 0 0
3437 1 2 -3.5331408332241115e-01 -7.7326259100147778e+00 -4.2052197967755376e+00 0 0 0
202 1 2 1.7273600096652124e+00 -7.2814148154013827e+00 -6.1177314574310380e+00 0 0 0
204 1 1 1.6923304050078520e+00 -6.9287443822444166e+00 -4.8208358098006991e+00 0 0 0
243 1 2 2.3876730247956823e+00 -7.6649682240162704e+00 -4.6894813670676934e+00 0 0 0
244 1 1 3.1621969427444663e+00 -7.0469737142729709e+00 -4.7174208745346471e+00 0 0 0
245 1 2 2.6455322815319091e+00 -6.8414089909220657e+00 -5.5303294950539765e+00 0 0 0
282 1 2 3.9938493716096874e+00 -6.8369415521242916e+00 -5.7229923367653805e+00 0 0 0
283 1 2 4.3330963412606778e+00 -6.7892487775918484e+00 -4.8001294195785418e+00 0 0 0
536 1 1 5.7578670988618832e+00 -6.6340667135008609e+00 -4.4470377147275144e+00 0 0 0
284 1 1 4.9007526074214631e+00 -6.4510212681711439e+00 -5.4361591013024269e+00 0 0 0
3749 1 1 -6.7739001910708510e+00 -4.6772095709583370e+00 -4.7715384583119578e+00 0 0 0
3750 1 2 -7.1106150847417320e+00 -3.9666874510603098e+00 -4.1964113806970520e+00 0 0 0
178 1 1 -4.3245352716581777e+00 -3.9220163390545122e+00 -6.7209169289127582e+00 0 0 0
3821 1 2 -6.5410793447013704e+00 -6.2182765235009070e+00 -5.0331389818549095e+00 0 0 0
3822 1 1 -6.1841813455095629e+00 -5.4090132837102400e+00 -5.4259990609567215e+00 0 0 0
3819 1 1 -5.2620847789838834e+00 -6.3734918967138645e+00 -5.4863758009868642e+00 0 0 0
172 1 1 -4.1917432437600946e+00 -6.1862665675094695e+00 -6.5550853468355665e+00 0 0 0
3809 1 2 -4.1966632638646093e+00 -5.7011692294420007e+00 -4.8596719621530280e+00 0 0 0
3818 1 1 -5.4994152140931716e+00 -5.8341121279900561e+00 -4.7461455391698433e+00 0 0 0
171 1 1 -5.0850977705454738e+00 -5.6999566783213274e+00 -6.4237260622599592e+00 0 0 0
170 1 1 -5.1321305367102434e+00 -5.2411834665928456e+00 -5.5722476596143640e+00 0 0 0
3811 1 1 -4.9231996694349682e+00 -5.0196113180840092e+00 -4.5410653368358389e+00 0 0 0
169 1 1 -4.5099422042572925e+00 -4.8056699378751464e+00 -6.1759660213891934e+00 0 0 0
1652 1 2 -3.8835406466140578e+00 -4.7211996544269876e+00 -4.9797334432677740e+00 0 0 0
3823 1 1 -5.8075723804474677e+00 -4.5667690705346384e+00 -5.1531185117114520e+00 0 0 0
3826 1 1 -6.4388489276867755e+00 -4.2271309588392860e+00 -5.9441837361057539e+00 0 0 0
65 1 1 -5.2974670658993563e+00 -3.9273700116899612e+00 -6.1003423312868126e+00 0 0 0
1651 1 2 -4.6674631243774707e+00 -4.2499415035227104e+00 -5.2600162623147240e+00 0 0 0
3755 1 1 -5.1863666562601436e+00 -3.8511337875636351e+00 -4.3100026184013913e+00 0 0 0
3748 1 1 -6.3984435589853481e+00 -5.4367102528648061e+00 -4.2668206147096548e+00 0 0 0
1654 1 1 -4.1567241731222682e+00 -4.1184305432063946e+00 -4.1726794981665298e+00 0 0 0
3807 1 2 -3.2633493083116076e+00 -6.2351065375585799e+00 -5.1746327833334655e+00 0 0 0
173 1 2 -3.8383827159113229e+00 -5.6646484343161312e+00 -5.8667047511212465e+00 0 0 0
168 1 2 -3.6051913625158849e+00 -4.8689680086721090e+00 -6.5329314808533026e+00 0 0 0
191 1 1 -2.1296551012276956e+00 -5.1747427371224655e+00 -6.5067946073297502e+00 0 0 0
3804 1 2 -2.3134299681685602e+00 -6.2486837628017424e+00 -4.7935158807379361e+00 0 0 0
190 1 2 -1.6902593343694641e+00 -4.3391016845857564e+00 -6.6627378907460493e+00 0 0 0
166 1 1 -2.9089057845343524e+00 -5.8638397645443305e+00 -6.3575826409853073e+00 0 0 0
165 1 2 -2.1977769880580631e+00 -5.8195270790052218e+00 -5.7722288500773953e+00 0 0 0
1662 1 2 -3.1535804849325637e+00 -5.4300673155690875e+00 -4.5699395740987425e+00 0 0 0
163 1 2 -1.2297962731494609e+00 -6.2758715202627240e+00 -4.6820239829971344e+00 0 0 0
162 1 2 -1.3729234362645799e+00 -5.5126477059688428e+00 -5.1424988553907953e+00 0 0 0
1661 1 2 -2.2782303374336119e+00 -5.1183848443931508e+00 -4.8231704553067303e+00 0 0 0
192 1 2 -1.4574210175162177e+00 -5.8563763244721390e+00 -6.6972759798805468e+00 0 0 0
161 1 2 -1.3265553936158632e+00 -4.8127404732038332e+00 -4.4849606083300122e+00 0 0 0
1660 1 2 -1.8804432393472179e+00 -4.7152703186054401e+00 -5.5707536624173786e+00 0 0 0
174 1 2 -3.0754978609253838e+00 -5.0977972468500417e+00 -5.5875126473863634e+00 0 0 0
1653 1 2 -3.2253852797328735e+00 -4.3948394511822020e+00 -4.3776293228898329e+00 0 0 0
1658 1 1 -2.1838966328739384e+00 -4.2357849587982672e+00 -4.2357594592345587e+00 0 0 0
175 1 2 -2.6821150663722517e+00 -4.3842886092565463e+00 -6.1415569519368622e+00 0 0 0
1659 1 2 -2.4168209654589630e+00 -4.0899211548861860e+00 -5.1424257545597651e+00 0 0 0
1649 1 2 -3.7381458401717751e+00 -4.1193747876076792e+00 -5.8123625429954453e+00 0 0 0
160 1 2 -1.0585309386029957e+00 -3.9568374753443720e+00 -4.9496901039539996e+00 0 0 0
147 1 2 7.4468693338245506e-01 -5.1535850151755795e+00 -6.8554132720377483e+00 0 0 0
197 1 2 -6.1392149456764222e-01 -6.0189518184737354e+00 -5.8871042001135034e+00 0 0 0
158 1 2 -9.4094208821447289e-01 -5.0058833373103502e+00 -6.0890946238394958e+00 0 0 0
159 1 2 -7.9540236536432984e-01 -4.1078832205119422e+00 -5.8363371081095572e+00 0 0 0
196 1 2 -3.0480489076762612e-01 -5.7678716254232993e+00 -6.7063646015034557e+00 0 0 0
148 1 2 9.4210597803851581e-01 -6.0380460214392793e+00 -6.3591847534739765e+00 0 0 0
125 1 2 -4.9132148324897934e-01 -4.8578770320362299e+00 -5.1667196210226267e+00 0 0 0
3553 1 2 -5.9297562078679422e-01 -5.5722117066090320e+00 -4.2702953799422376e+00 0 0 0
3552 1 2 -1.4262358649813153e-01 -6.0835270497286578e+00 -4.8723544082832744e+00 0 0 0
126 1 2 -1.4869379931200138e-01 -4.4439373920319962e+00 -4.3840794708311188e+00 0 0 0
130 1 2 1.0161090258269785e+00 -4.2016944122524915e+00 -6.2032841478910941e+00 0 0 0
156 1 2 2.8828035705220834e-01 -5.5304255356954934e+00 -5.7970105646178496e+00 0 0 0
157 1 2 -2.6774235767708383e-02 -4.8151966634399894e+00 -6.2146760212689447e+00 0 0 0
3550 1 1 5.9668472874481604e-01 -5.2644791816272285e+00 -4.5672598046299022e+00 0 0 0
3429 1 2 9.1661276935887792e-01 -6.1936367708366626e+00 -5.2493272308371175e+00 0 0 0
3428 1 1 1.4411266175353696e+00 -5.8454100290172839e+00 -4.5283527848340333e+00 0 0 0
155 1 2 1.1333769091317769e+00 -5.1860356373996250e+00 -5.6062690708705212e+00 0 0 0
154 1 2 1.2826937537608811e+00 -4.5763419189059951e+00 -4.8205113926022713e+00 0 0 0
124 1 2 3.6684324966824433e-01 -4.3985702835511926e+00 -5.3338039496892726e+00 0 0 0
127 1 1 5.3221878708269521e-01 -3.8010024464591869e+00 -4.4132784534634117e+00 0 0 0
143 1 2 1.7238740581194045e+00 -5.0300838854447401e+00 -6.4874194003824064e+00 0 0 0
150 1 1 1.9139779312288421e+00 -6.0385591380594326e+00 -5.4653773220686999e+00 0 0 0
501 1 2 2.0655706305025259e+00 -3.8196227638695150e+00 -6.5121095207212178e+00 0 0 0
259 1 2 3.6355287460864889e+00 -6.1306044962994886e+00 -6.8433807917712466e+00 0 0 0
153 1 2 2.0618903926675678e+00 -5.1261613381221904e+00 -4.7987352819803091e+00 0 0 0
248 1 2 1.9166468073258798e+00 -4.4154740818796476e+00 -5.5626166206098642e+00 0 0 0
260 1 1 4.1729594362227331e+00 -5.8256745762139355e+00 -6.0690114771598029e+00 0 0 0
149 1 2 1.8568770300027044e+00 -6.1931879264238683e+00 -6.4468709532387196e+00 0 0 0
151 1 1 2.6871959061680855e+00 -5.9551228044875355e+00 -4.8799599556659921e+00 0 0 0
256 1 1 3.4680941741834035e+00 -4.9838933850552980e+00 -6.4532713746928039e+00 0 0 0
281 1 1 3.6496948524359221e+00 -6.1143115855654582e+00 -5.1591641718295520e+00 0 0 0
247 1 1 2.5672763688217661e+00 -5.1193479074993471e+00 -5.9218459524058034e+00 0 0 0
246 1 1 2.8982087810806036e+00 -6.0179066731365358e+00 -5.9288750176312170e+00 0 0 0
253 1 2 2.8531107970823584e+00 -4.3850905807142064e+00 -4.9329743461205329e+00 0 0 0
254 1 2 3.2851134328250802e+00 -5.1721522647080782e+00 -4.6221815092705612e+00 0 0 0
255 1 1 3.4818560171424018e+00 -5.1268171028048988e+00 -5.5507964944665416e+00 0 0 0
530 1 2 3.6515185317153196e+00 -4.0419212959681694e+00 -4.2328149651690072e+00 0 0 0
529 1 2 3.9649977878030187e+00 -4.1742308284712584e+00 -5.1922173220720103e+00 0 0 0
4 1 2 2.9991814263030627e+00 -4.0945643037241837e+00 -5.9974725577016850e+00 0 0 0
512 1 2 4.0246611478173770e+00 -4.0151102911936425e+00 -6.3713213502125212e+00 0 0 0
280 1 2 3.5757054918744311e+00 -6.1096377825235306e+00 -4.1834640206731182e+00 0 0 0
510 1 1 4.4063517221562627e+00 -5.0541929674926021e+00 -6.8324291260664900e+00 0 0 0
511 1 2 4.5056746988652225e+00 -4.7704889536128006e+00 -5.9363057207928360e+00 0 0 0
277 1 2 4.3875822935093831e+00 -5.3473608711215421e+00 -5.0183435496703304e+00 0 0 0
261 1 1 4.9816714819875578e+00 -6.1176547369693601e+00 -6.4588341440413588e+00 0 0 0
262 1 2 5.4624990694563751e+00 -5.2451632800439079e+00 -6.6151467782847506e+00 0 0 0
285 1 2 5.1565949987099140e+00 -5.5865948897836697e+00 -5.6413400774903462e+00 0 0 0
278 1 1 5.2250112400776141e+00 -5.6051218905726206e+00 -4.6539027305043010e+00 0 0 0
275 1 1 5.0516728144591942e+00 -4.5609856017033685e+00 -4.8926691829440561e+00 0 0 0
274 1 2 5.6015200290671041e+00 -4.5616937189591464e+00 -5.6479421247728769e+00 0 0 0
264 1 1 6.5297785647280131e+00 -3.8079795947279722e+00 -6.5036444679372032e+00 0 0 0
286 1 1 6.0307689166914455e+00 -5.8343731546371593e+00 -5.3341881806110161e+00 0 0 0
273 1 1 6.4519487881057707e+00 -4.9081382222136964e+00 -5.9880323539485421e+00 0 0 0
287 1 1 6.1230593337594268e+00 -5.1183637410418532e+00 -4.7646191987029383e+00 0 0 0
288 1 1 6.6126504306805627e+00 -4.4778631600477210e+00 -4.2804791294362259e+00 0 0 0
545 1 2 5.7897684796918156e+00 -3.8553081582622757e+00 -4.7456296584947264e+00 0 0 0
546 1 1 6.4577444862626683e+00 -3.8582977790361896e+00 -5.4176274700219436e+00 0 0 0
513 1 2 5.0149300190111568e+00 -3.8550809342039485e+00 -6.3936870292776931e+00 0 0 0
276 1 2 4.4401481238105029e+00 -4.8280814536921914e+00 -4.2420075925202338e+00 0 0 0
279 1 2 4.5399038224696602e+00 -5.9702063272360792e+00 -4.1634165842229924e+00 0 0 0
272 1 1 7.1319918746315851e+00 -4.7463621318527025e+00 -5.2658575571925024e+00 0 0 0
271 1 2 7.1363094002363727e+00 -5.3378727690852763e+00 -4.4089587824642340e+00 0 0 0