LAMMPS data file via write_data, version 16 Mar 2018, timestep = 0

4000 atoms
2 atom types
3999 bonds
1 bond types

-9.5282049355625968e+00 9.3546810475651174e+00 xlo xhi
-9.7831338288354885e+00 1.0090656322136153e+01 ylo yhi
-9.3585463664806738e+00 9.5327561905781870e+00 zlo zhi

Masses

1 1
2 1

Atoms # bond

584 1 1 -3.8764047299371915e+00 -4.5959317251154896e+00 -8.1105761997242105e+00 0 0 0
898 1 2 -3.8439663918200466e+00 -5.0217757021860621e+00 -6.7417353771498689e+00 0 0 0
910 1 1 -2.0117082588284294e+00 -4.7768054252170966e+00 -7.2056114093630521e+00 0 0 0
911 1 2 -2.9145740375666263e+00 -4.3127201775184476e+00 -7.3320399385722110e+00 0 0 0
583 1 2 -4.0163250455988555e+00 -4.1629601205589815e+00 -7.2624274102219211e+00 0 0 0
1501 1 2 -1.1336860510374993e+00 -4.6272099533679754e+00 -6.7374105943273692e+00 0 0 0
1502 1 1 -5.8503530959908678e-01 -5.3449688504922168e+00 -7.0776937681988432e+00 0 0 0
1517 1 1 5.6700289245440683e-01 -5.2761387077053872e+00 -7.6451595216750450e+00 0 0 0
1518 1 2 8.1317153477846138e-01 -6.2072084646966790e+00 -7.4624885763109292e+00 0 0 0
1516 1 1 3.5791686426648511e-01 -4.5005485868272901e+00 -6.9239230227680633e+00 0 0 0
1166 1 1 5.1792809064253417e-02 -4.3434424793770026e+00 -8.0010564496871162e+00 0 0 0
1167 1 1 -2.4056598840928009e-01 -4.1526561513237947e+00 -8.8869301390505751e+00 0 0 0
1512 1 2 1.0993481517370289e+00 -4.1165319502364861e+00 -8.3994472708880057e+00 0 0 0
1500 1 1 -1.2125989491466467e+00 -4.5580573933254813e+00 -7.7850598712139840e+00 0 0 0
1459 1 2 1.2287086762292547e+00 -5.4806258039283895e+00 -6.7354529247173591e+00 0 0 0
1519 1 1 4.0945260399275762e-01 -6.6131381663939921e+00 -6.7293165312056242e+00 0 0 0
1467 1 2 2.8665885805049167e+00 -4.6656343104904359e+00 -7.2254910018161986e+00 0 0 0
1511 1 1 1.7174548473988878e+00 -4.9084780740195004e+00 -8.2506052764257749e+00 0 0 0
1468 1 2 2.8493429327056736e+00 -5.5398701280898530e+00 -6.9130181889484579e+00 0 0 0
1509 1 2 1.3414494564831334e+00 -4.5288526696895470e+00 -7.2792156032022719e+00 0 0 0
1510 1 2 2.0024285549053409e+00 -4.1253775681660771e+00 -7.7824774759039332e+00 0 0 0
1424 1 2 4.8060693706669042e+00 -4.2615328110832458e+00 -6.9348850797942072e+00 0 0 0
573 1 2 -6.8735568119674868e+00 -1.7386979733118482e+00 -6.6671543288498496e+00 0 0 0
588 1 1 -4.4962902753945047e+00 -2.8776329067108479e+00 -8.5100200237712667e+00 0 0 0
589 1 2 -4.7475416920498628e+00 -2.2636880687062564e+00 -7.8050697205696737e+00 0 0 0
581 1 2 -5.0994552676008658e+00 -3.6162391305968069e+00 -7.6499035096504127e+00 0 0 0
582 1 2 -4.1915214214388232e+00 -3.2606555777820185e+00 -7.5045310345871314e+00 0 0 0
612 1 1 -5.8324278890724317e+00 -1.9092829290608775e+00 -7.1847119219643529e+00 0 0 0
580 1 2 -5.2274940554915235e+00 -2.8803086166592986e+00 -6.9878954836821645e+00 0 0 0
590 1 2 -4.7473637492356158e+00 -1.6384294693870454e+00 -6.9689730522516102e+00 0 0 0
585 1 2 -3.7226424208727136e+00 -3.7067061807429766e+00 -8.4619950109668434e+00 0 0 0
586 1 1 -3.5148377033190745e+00 -2.8955955055520040e+00 -8.9550990137281214e+00 0 0 0
587 1 2 -3.6700730954555896e+00 -2.6027776941967051e+00 -8.0867644479344651e+00 0 0 0
912 1 1 -3.0682799914605274e+00 -3.4048984069879209e+00 -7.5819387814714077e+00 0 0 0
1493 1 2 -2.3366633192523145e+00 -2.9942556105801277e+00 -8.3014212637602967e+00 0 0 0
1494 1 2 -2.6714253617670742e+00 -2.2366604187160219e+00 -8.7481429497058851e+00 0 0 0
1496 1 2 -1.6804831519753398e+00 -2.0006507020134570e+00 -9.2260051703408070e+00 0 0 0
1492 1 1 -1.9560473662957425e+00 -3.7388252584322448e+00 -7.8068479953659411e+00 0 0 0
593 1 2 -2.6150332778251295e+00 -2.4064800918641196e+00 -7.4760406598391516e+00 0 0 0
1495 1 2 -2.2870602699007407e+00 -2.8246777553184348e+00 -9.3131521168621259e+00 0 0 0
1132 1 2 -1.8532843181422556e+00 -1.9636822656324500e+00 -8.0583487168631027e+00 0 0 0
1131 1 2 -1.8656524099726228e+00 -1.8252799204614274e+00 -7.1016922884341716e+00 0 0 0
1491 1 2 -1.5980626154289861e+00 -2.9340913286828503e+00 -7.4635877137587574e+00 0 0 0
1490 1 2 -1.4758043601742692e+00 -3.6627367684920222e+00 -6.8178655952653360e+00 0 0 0
592 1 2 -3.5524033734479925e+00 -2.2745415308058425e+00 -7.1521197309276072e+00 0 0 0
594 1 2 -2.8987407758778057e+00 -1.5966423240203551e+00 -7.7838677493274400e+00 0 0 0
913 1 2 -2.6330455547879645e+00 -3.3385352426347112e+00 -6.7397709313355154e+00 0 0 0
595 1 2 -3.7574841775913748e+00 -1.5488179160195594e+00 -8.0941984764624433e+00 0 0 0
914 1 2 -3.5787853461476202e+00 -3.3249246614070467e+00 -6.6995221105155309e+00 0 0 0
1499 1 2 -1.3610935501232087e+00 -4.0867566308303500e+00 -8.6030902185670577e+00 0 0 0
1165 1 2 -4.5269188587321252e-01 -3.9109670870034123e+00 -7.3775939243105855e+00 0 0 0
1497 1 2 -1.3423879900208411e+00 -2.7552302526129435e+00 -8.7141793042432703e+00 0 0 0
1498 1 2 -9.2177841204837574e-01 -3.3895342558538140e+00 -8.1092816874304159e+00 0 0 0
1133 1 2 -1.0538616236584628e+00 -1.5966909188341645e+00 -8.4131305731703030e+00 0 0 0
1134 1 2 -4.3015785729331774e-01 -2.2291542019185524e+00 -8.9728530460562208e+00 0 0 0
1168 1 2 -4.5803479814771914e-01 -3.2765529588669318e+00 -9.0294878630585149e+00 0 0 0
1169 1 2 3.7369208062819836e-01 -2.8797186658163572e+00 -9.1441067100929665e+00 0 0 0
1515 1 2 7.4080877138282575e-01 -3.6697309447088142e+00 -7.3963993511601185e+00 0 0 0
1170 1 2 1.1370624518949752e+00 -2.3352426545128848e+00 -8.8306927199325109e+00 0 0 0
1514 1 2 1.1451602282198861e+00 -2.8245786939355662e+00 -7.3309611680804236e+00 0 0 0
1142 1 2 -8.3651618228634109e-02 -2.9859210855076141e+00 -7.3391010626297106e+00 0 0 0
1135 1 1 2.9338554703011815e-01 -1.7519817442380170e+00 -9.2863456749344149e+00 0 0 0
1143 1 2 -6.5347566535771784e-01 -2.4361524878706557e+00 -7.8365419716476632e+00 0 0 0
1141 1 1 1.4375248777785316e-01 -3.2634194306661355e+00 -8.1833574780909473e+00 0 0 0
1136 1 2 8.1951717312759809e-01 -1.3506884447177552e+00 -8.5955278848267866e+00 0 0 0
1139 1 2 -2.6660552873035183e-02 -1.6125559266751093e+00 -8.0628210992219103e+00 0 0 0
1140 1 2 4.8194749297579281e-01 -2.4339286667766902e+00 -8.0552687619061984e+00 0 0 0
1144 1 2 -9.1754134171909985e-01 -1.5857495490760740e+00 -7.3267983597414776e+00 0 0 0
1181 1 2 5.8154475885823986e-01 -1.7573264637962189e+00 -7.1661971425585698e+00 0 0 0
1513 1 2 1.2858413288294210e+00 -3.2382255480454090e+00 -8.1976649932974404e+00 0 0 0
1466 1 1 3.6895830714808731e+00 -4.0977999959944089e+00 -7.4033301563546869e+00 0 0 0
1414 1 2 3.3177591354871092e+00 -3.0727127093566842e+00 -8.1146482062432703e+00 0 0 0
1171 1 1 1.5196225235084291e+00 -2.0111115291202397e+00 -8.0473103592348068e+00 0 0 0
1172 1 2 1.6726988026939811e+00 -1.8218808871510892e+00 -7.0896751072404625e+00 0 0 0
1413 1 1 2.8724034917974106e+00 -3.9533759124890113e+00 -8.2694320233466101e+00 0 0 0
1412 1 2 2.2782699187593152e+00 -3.5073950450381330e+00 -8.7390229492924618e+00 0 0 0
1465 1 2 2.8442306532845114e+00 -3.6429119149008247e+00 -7.1323995023996236e+00 0 0 0
1418 1 2 3.8825384118601840e+00 -3.4260986684563632e+00 -6.6967358858737329e+00 0 0 0
1411 1 2 2.2993449688624916e+00 -3.0326675072850819e+00 -7.8890041558998769e+00 0 0 0
1409 1 2 3.2790442833636773e+00 -2.6456159030852304e+00 -7.1588994814798763e+00 0 0 0
1463 1 2 2.2035183251994352e+00 -2.8093191163706321e+00 -6.7556418367289037e+00 0 0 0
1410 1 1 2.6021339759097075e+00 -2.1870501518399275e+00 -7.6131898028701910e+00 0 0 0
3631 1 1 2.9936996005698995e+00 -1.5532993890092461e+00 -8.5306917794134254e+00 0 0 0
3632 1 1 2.3468322821325254e+00 -2.3220476134090808e+00 -8.6928121239142495e+00 0 0 0
1462 1 2 1.7401359657473154e+00 -3.5738736076678044e+00 -6.9712199751511390e+00 0 0 0
1157 1 2 2.7225539431367167e+00 -1.3341999965134490e+00 -6.8544884383410301e+00 0 0 0
3633 1 2 1.9318405187696424e+00 -1.4651125936817211e+00 -9.0631197517080189e+00 0 0 0
3629 1 2 3.5899218002137916e+00 -1.3733190205863972e+00 -7.6537762919434567e+00 0 0 0
1415 1 2 4.2641892302843507e+00 -3.2452400468300797e+00 -7.8349969001220297e+00 0 0 0
1407 1 1 4.8588618012920488e+00 -1.9616855697058375e+00 -7.8171738160452540e+00 0 0 0
1416 1 2 4.9908485451224864e+00 -3.1445401573200291e+00 -7.1567937947539058e+00 0 0 0
1408 1 2 4.1925395798071010e+00 -2.3183346921998411e+00 -7.1460893616128809e+00 0 0 0
1406 1 2 5.2733352499056432e+00 -2.0949660801939527e+00 -6.9797713814107114e+00 0 0 0
1403 1 2 5.9941248775277103e+00 -1.4893150444644765e+00 -7.5058475443180974e+00 0 0 0
610 1 2 -4.9855793895736289e+00 -1.2288597332583551e+00 -7.9295502158305489e+00 0 0 0
609 1 2 -4.2531768402076402e+00 -6.2549886707270008e-01 -7.9427810454476280e+00 0 0 0
608 1 2 -4.3227906359552959e+00 2.6324210865447401e-01 -7.5949210219581431e+00 0 0 0
495 1 2 -5.4826061183181025e+00 4.7126045335260514e-01 -7.2641409177091694e+00 0 0 0
611 1 2 -5.8488574073102173e+00 -9.4787295017586681e-01 -7.5226181389891051e+00 0 0 0
496 1 1 -4.9112126895217463e+00 1.1456759073703138e+00 -7.6382533048190213e+00 0 0 0
493 1 2 -4.9330316774869765e+00 -5.9176915251349993e-01 -7.0510656440563340e+00 0 0 0
923 1 2 -4.3267106840861373e+00 1.3448950858245705e+00 -6.8474637076488039e+00 0 0 0
597 1 2 -2.5149074040646062e+00 -1.2156320722298943e+00 -8.6872676159095832e+00 0 0 0
598 1 1 -2.2401103752225557e+00 -5.2525014424288929e-01 -9.2720413764636955e+00 0 0 0
600 1 2 -1.7686933953744641e+00 -9.4970950553453881e-01 -7.9759216821761081e+00 0 0 0
919 1 2 -3.6073430283942951e+00 -1.1421194854435814e+00 -7.1488549693144519e+00 0 0 0
596 1 2 -3.3030284012636097e+00 -8.0402385654363151e-01 -8.3612915040436562e+00 0 0 0
606 1 2 -3.3925700368554739e+00 -1.1008039870524695e-01 -7.5575414162950887e+00 0 0 0
601 1 2 -2.4691796005998290e+00 -3.5721814195270946e-01 -8.0391699376259727e+00 0 0 0
602 1 2 -1.8604250025485098e+00 -2.2302053102849474e-02 -7.3279422876267608e+00 0 0 0
1262 1 1 -1.9272607718669310e+00 6.9988087723688686e-01 -9.3566536147753094e+00 0 0 0
607 1 1 -3.6418256733125278e+00 5.9556190321697322e-01 -8.1470126967453851e+00 0 0 0
1263 1 1 -2.6390392183716709e+00 4.5055894374663136e-01 -8.7767779160086121e+00 0 0 0
1264 1 2 -2.6169624948809558e+00 6.5445312357009244e-01 -7.8003004985746536e+00 0 0 0
1265 1 2 -1.7921297955413158e+00 4.1528091325901356e-01 -8.2455803193142501e+00 0 0 0
504 1 2 -1.9311814530358318e+00 1.3132999318665002e+00 -7.3812286032387320e+00 0 0 0
922 1 2 -3.5131449937060628e+00 8.6911038950760711e-01 -7.1530678022982661e+00 0 0 0
604 1 2 -2.4905286535992346e+00 -9.0636626905021456e-01 -7.1240199726372371e+00 0 0 0
603 1 2 -1.5480083293082600e+00 -7.4599342445037498e-01 -6.9323705982213397e+00 0 0 0
505 1 2 -2.5261266441304739e+00 1.0560497538441709e+00 -6.6857271684851245e+00 0 0 0
518 1 2 -2.5720174242221181e+00 1.5407527164967634e+00 -8.3367123211543639e+00 0 0 0
605 1 2 -2.8112534022307458e+00 4.3832496588611741e-02 -6.8231666017207280e+00 0 0 0
599 1 2 -1.4436095593715974e+00 -6.5359930598426486e-01 -8.7912716565537163e+00 0 0 0
516 1 1 -1.4907216252428372e+00 1.4520460109979800e+00 -8.6305232553295941e+00 0 0 0
1260 1 2 -6.1556888078929906e-01 -6.6249076123434975e-02 -8.5929331989158886e+00 0 0 0
1261 1 2 -1.0018865211937644e+00 6.2644650658339485e-01 -9.1002940295838606e+00 0 0 0
1259 1 2 -7.9723730310506746e-01 -5.9601353807069390e-01 -7.8086636697621348e+00 0 0 0
1138 1 2 -2.0561848414110193e-01 -1.0627599290339185e+00 -8.8262398162558462e+00 0 0 0
1137 1 1 6.3220619306664472e-01 -6.1832839986065213e-01 -9.0168103834987239e+00 0 0 0
1258 1 1 1.9459583662751823e-01 -5.8617135628334927e-01 -7.9450280866635490e+00 0 0 0
1184 1 1 1.1098617117465286e+00 4.3113102418642454e-02 -7.8627491609586881e+00 0 0 0
1183 1 2 8.4881616709901631e-01 -3.9740616037957499e-01 -6.9968645476823950e+00 0 0 0
1145 1 1 -1.4533823809514138e-01 -1.0430948857665809e+00 -7.0244530102611487e+00 0 0 0
1267 1 2 -8.3651224664208890e-01 4.8051698585524313e-02 -7.0085399015436893e+00 0 0 0
1266 1 2 -1.0882949730471467e+00 7.4643387431324981e-01 -7.5928129273502423e+00 0 0 0
1257 1 2 -1.5532447058651972e-02 2.8516728621810655e-01 -7.6373033372653429e+00 0 0 0
1251 1 2 1.5704089027058260e-01 1.1660275304298200e+00 -9.2249415061536979e+00 0 0 0
1255 1 2 -4.3339329615343947e-01 1.1142552570154780e+00 -8.3440015232405305e+00 0 0 0
1250 1 2 3.6201415091257150e-01 4.4895397412214977e-01 -8.6040704497453113e+00 0 0 0
1256 1 2 -1.1645709725918074e-01 1.2202106480425767e+00 -7.4484129857683214e+00 0 0 0
1248 1 2 7.4575544139861183e-01 7.8857008417930097e-01 -7.0825296990137732e+00 0 0 0
1249 1 2 8.0426334407630751e-01 1.1074289831411164e+00 -7.9793807282213969e+00 0 0 0
508 1 2 -8.2618905448051294e-01 1.2357629586249403e+00 -6.7017767898613574e+00 0 0 0
1194 1 2 1.2383201254611464e+00 1.2370296103310408e+00 -8.9452238652461560e+00 0 0 0
3635 1 2 1.2679402226800187e+00 -1.0144260353026953e+00 -7.6945591700273184e+00 0 0 0
3634 1 1 1.6770004929896596e+00 -7.3393380362148597e-01 -8.5127775017336766e+00 0 0 0
3636 1 2 2.2311486980423885e+00 -1.2331832829782521e+00 -7.7897518505585852e+00 0 0 0
1173 1 2 1.7979246655024010e+00 -9.2308761824506658e-01 -6.8139296875097530e+00 0 0 0
1185 1 2 2.0308917590884370e+00 -2.0447625485899307e-01 -7.6382042509653632e+00 0 0 0
3637 1 2 2.6790910032384518e+00 -4.6476201521168892e-01 -8.4397756502974381e+00 0 0 0
3630 1 2 3.7761522002826529e+00 -1.0082762136498271e+00 -8.4885730396344563e+00 0 0 0
3628 1 2 3.3002510260598643e+00 -4.5524403529544799e-01 -7.5830542620702355e+00 0 0 0
1195 1 2 1.8019292837979022e+00 7.5508899592712087e-01 -8.3360214341697603e+00 0 0 0
1196 1 2 1.8593986064874586e+00 8.2213422697594929e-01 -7.3797794344427139e+00 0 0 0
3638 1 2 2.6474993131637610e+00 2.5431743522848732e-01 -9.0404940312428970e+00 0 0 0
1190 1 2 3.6476011876871408e+00 2.9272992077365684e-01 -8.2293470840632832e+00 0 0 0
1187 1 2 2.8722261010711234e+00 7.2379759115245756e-01 -6.8786247723621958e+00 0 0 0
1188 1 2 3.6560274083351887e+00 1.0432324765846031e+00 -7.3872873031121857e+00 0 0 0
1191 1 2 2.8151326978612139e+00 5.8727975586630921e-01 -7.9726439307913193e+00 0 0 0
3639 1 2 2.9799395996039530e+00 1.2046229100038559e+00 -9.0790829129453599e+00 0 0 0
1189 1 1 3.8412814674117173e+00 1.2534357125334294e+00 -8.3012492662287389e+00 0 0 0
1192 1 2 2.6756069359012544e+00 1.5040299527175907e+00 -7.9959890084062399e+00 0 0 0
1186 1 2 2.6461172822141816e+00 -2.0718862407779817e-01 -6.8005884355061808e+00 0 0 0
1154 1 2 3.8076382108361337e+00 1.5527013021734348e-01 -6.7309120232529525e+00 0 0 0
1405 1 1 5.0338552991676249e+00 -1.1570146611532712e+00 -7.2140855309216869e+00 0 0 0
1402 1 2 6.5392350270229302e+00 -1.1444314902810291e+00 -6.8358627744382492e+00 0 0 0
1404 1 2 5.7484341668360575e+00 -6.0121772756929581e-01 -7.3185511161529453e+00 0 0 0
3627 1 2 4.2363034599509941e+00 -4.9155005470244029e-01 -7.4177636648769285e+00 0 0 0
3626 1 2 4.8654175345984125e+00 -3.0325347811954773e-01 -8.0757664250762105e+00 0 0 0
3625 1 2 4.5853322530879552e+00 4.9215681710531700e-01 -7.6355618138310488e+00 0 0 0
1396 1 2 4.9579628538418410e+00 2.4164286376500456e-04 -6.6999699585100716e+00 0 0 0
3572 1 2 5.9284975973907290e+00 4.0885140269931586e-01 -7.0683485781068640e+00 0 0 0
3571 1 2 5.6220836833540604e+00 1.3369208537332360e+00 -7.1499530886121825e+00 0 0 0
3624 1 1 4.6794680478068917e+00 1.4621958460210973e+00 -7.4502108662660902e+00 0 0 0
3573 1 2 6.8703546700928415e+00 8.1976956338553553e-01 -6.9101844956894487e+00 0 0 0
3788 1 2 -4.5767952701579988e+00 2.2385767573994348e+00 -7.5770672677725255e+00 0 0 0
3789 1 1 -4.5022006554910341e+00 3.0424927074121029e+00 -7.1325700881768617e+00 0 0 0
498 1 2 -5.4109931903226132e+00 2.3635337227462174e+00 -6.7092507111092994e+00 0 0 0
497 1 2 -5.7000212504132719e+00 1.6712475018153286e+00 -7.3461229492553377e+00 0 0 0
3787 1 2 -3.9208665652115333e+00 1.7117857252204567e+00 -8.1112989632214774e+00 0 0 0
3786 1 2 -3.3123285854703997e+00 2.3714955179780750e+00 -8.5424320392025930e+00 0 0 0
517 1 1 -2.1435379377547692e+00 2.0077027001112375e+00 -9.0429631765116572e+00 0 0 0
3790 1 2 -4.0399353278021097e+00 3.8267399669722768e+00 -6.8494485828512621e+00 0 0 0
3785 1 2 -3.6098187038637710e+00 2.9257037799933934e+00 -7.8493609932657371e+00 0 0 0
519 1 2 -2.9848236943839934e+00 1.6627438642957009e+00 -7.4973475889218237e+00 0 0 0
3782 1 1 -2.3479962066841620e+00 2.8690569596660342e+00 -8.5225258489394626e+00 0 0 0
503 1 2 -1.7490395821949223e+00 2.1258609596767952e+00 -6.8660941285449866e+00 0 0 0
3784 1 2 -2.7597676220065321e+00 2.7447101061285060e+00 -7.5292824290481937e+00 0 0 0
3783 1 2 -2.0049461690935524e+00 2.2694984480803782e+00 -7.8489291220127004e+00 0 0 0
3958 1 2 -2.9821054305126826e+00 3.8028731249917223e+00 -7.3764050177111864e+00 0 0 0
3959 1 2 -2.0932550050371237e+00 3.6110626672066859e+00 -7.7846233298590262e+00 0 0 0
3960 1 2 -1.7261949391611908e+00 4.0205782209502221e+00 -6.9912712009447517e+00 0 0 0
520 1 2 -3.6468147672287503e+00 2.1515917358621728e+00 -7.0055913742872642e+00 0 0 0
3956 1 2 -2.2356365712900428e+00 3.1510347655924447e+00 -6.7527105864326833e+00 0 0 0
1252 1 1 -4.5968757174792507e-01 1.8579620195051580e+00 -9.2183946928218408e+00 0 0 0
1253 1 2 2.2794661407757891e-01 2.5050503765326426e+00 -9.0804317072334069e+00 0 0 0
3781 1 2 -1.4037144190774258e+00 2.6562032879134043e+00 -8.6447356508268065e+00 0 0 0
515 1 2 -1.0842065123866300e+00 1.8078352407568539e+00 -7.7698560481527146e+00 0 0 0
514 1 2 -5.2039785575120856e-01 2.2687729100046941e+00 -7.1177926376956631e+00 0 0 0
1254 1 2 1.0824435335237077e-01 1.9145554624287056e+00 -8.3315680198902164e+00 0 0 0
3943 1 2 5.8690469886452135e-01 1.9820485587107008e+00 -7.3128349907494519e+00 0 0 0
3938 1 2 1.1489677196325416e+00 2.1241019564433437e+00 -8.2596655006946538e+00 0 0 0
3942 1 2 3.5748193292678476e-01 2.8181740527391614e+00 -6.8922767682623824e+00 0 0 0
513 1 2 -1.1914568218034978e+00 2.8957213195538754e+00 -7.5341449942206964e+00 0 0 0
3780 1 2 -6.2473152909259699e-01 3.1814176970905241e+00 -8.5547212026512192e+00 0 0 0
3779 1 2 -1.1912942750884725e-01 3.8536817078050620e+00 -8.0965334898410806e+00 0 0 0
3941 1 2 1.1961210564292671e-01 2.8249975201279747e+00 -7.8349761693343245e+00 0 0 0
3940 1 2 6.6868039128894485e-01 3.2948131312779201e+00 -8.4569900094422099e+00 0 0 0
3933 1 2 6.0028797758450037e-01 3.6889664268602052e+00 -7.3458534752807587e+00 0 0 0
3778 1 2 -1.0627170355745879e+00 3.9653670470634910e+00 -7.9684532660227818e+00 0 0 0
512 1 2 -5.0315012633402778e-01 3.3942146981614765e+00 -7.1278079025394989e+00 0 0 0
3932 1 2 8.7538083777568187e-01 4.2946108765544686e+00 -6.6755021584560437e+00 0 0 0
3939 1 1 1.4889988685985840e+00 2.7763851173397716e+00 -8.8563905092691773e+00 0 0 0
3935 1 2 1.2868324455705573e+00 2.8338607212231923e+00 -7.4643680738928353e+00 0 0 0
3934 1 2 1.3357189908350744e+00 3.4129431211376628e+00 -6.6930602806012862e+00 0 0 0
3682 1 2 2.0769301207233517e+00 3.6120433332042787e+00 -8.1705610280745145e+00 0 0 0
3937 1 2 1.6234729748465051e+00 1.8634664094983775e+00 -7.4005849318295338e+00 0 0 0
1193 1 1 2.0506000490579455e+00 1.7147817564133212e+00 -8.7522716603820818e+00 0 0 0
3640 1 1 3.4098974466478373e+00 2.0440053909816922e+00 -9.0835828186637446e+00 0 0 0
3622 1 2 3.1569411472556839e+00 2.0773449701169771e+00 -7.0788118373247899e+00 0 0 0
3683 1 2 2.1747510385554532e+00 2.6594464929754920e+00 -8.0949360146651159e+00 0 0 0
3684 1 2 2.2537605122301918e+00 2.7519864040748891e+00 -7.1984280722961014e+00 0 0 0
3641 1 1 3.2906632271278107e+00 2.3386282748097758e+00 -8.2162212072852387e+00 0 0 0
3653 1 1 3.3185568930978673e+00 3.0985962006992231e+00 -7.4648016318708077e+00 0 0 0
3654 1 1 3.2137668635848908e+00 4.0442096022391025e+00 -7.5577615699716905e+00 0 0 0
3681 1 2 1.5287294540305159e+00 4.1811450269338923e+00 -7.6498661204632441e+00 0 0 0
3685 1 2 2.3660969155624780e+00 3.7163325402677945e+00 -6.9946156591482698e+00 0 0 0
3642 1 1 4.2198021443641833e+00 2.6564106872924271e+00 -8.2955358998215161e+00 0 0 0
3643 1 1 3.9822861895063415e+00 3.5457556941495394e+00 -8.1734956464870550e+00 0 0 0
3623 1 2 4.0805273724936955e+00 2.1024027801783420e+00 -7.4254697096235152e+00 0 0 0
2217 1 2 5.1833169811092290e+00 2.4593974460230412e+00 -7.3376983489841203e+00 0 0 0
3644 1 2 4.4418018343557533e+00 3.2812730116416753e+00 -7.3520797619134788e+00 0 0 0
2216 1 1 5.7298259588920910e+00 3.2635429592745182e+00 -7.1840597996293392e+00 0 0 0
2218 1 2 6.0576464661907758e+00 2.2703000461565406e+00 -6.9408411078507566e+00 0 0 0
3659 1 2 4.1962413006287802e+00 4.3925132765472190e+00 -7.2724115901806456e+00 0 0 0
3660 1 1 4.9895711756451444e+00 4.0402612797211770e+00 -6.9071671662726155e+00 0 0 0
3791 1 2 -4.1032762922789479e+00 4.7728020626985099e+00 -6.7016935600732941e+00 0 0 0
3961 1 1 -1.9870876774616617e+00 4.8709922430574499e+00 -7.2345028598000640e+00 0 0 0
3792 1 2 -3.1278469446687462e+00 4.8507935041507508e+00 -6.8815529739520418e+00 0 0 0
3996 1 1 -2.9654028845555840e+00 6.2686418879454182e+00 -7.2042666278142011e+00 0 0 0
3777 1 1 -7.4974338033234356e-01 4.4700149215668024e+00 -7.2462361950133118e+00 0 0 0
3775 1 1 -9.5300208121886743e-01 5.4466627946641744e+00 -6.9926295011610486e+00 0 0 0
3763 1 2 1.0382492932155157e-01 5.6737350946428462e+00 -7.4105024755380393e+00 0 0 0
3762 1 2 4.4021051932998817e-01 4.7932630472494751e+00 -7.5176159625058023e+00 0 0 0
3760 1 2 1.0647543038936884e+00 6.1844964369329114e+00 -7.2116363453566183e+00 0 0 0
3761 1 1 1.2808784022516744e+00 5.2194803702146046e+00 -7.4181145450107149e+00 0 0 0
3655 1 2 3.3164602083782984e+00 5.0814079983791771e+00 -7.4021860883265473e+00 0 0 0
3680 1 1 2.2690173595343888e+00 4.7360890667883773e+00 -7.4553804083790451e+00 0 0 0
3679 1 1 2.0769687597491959e+00 5.2560996745632957e+00 -6.7179798440675143e+00 0 0 0
868 1 2 -4.2540935218176799e+00 -6.9986376093361509e+00 -5.7529622222504821e+00 0 0 0
872 1 1 -2.7051093634564527e+00 -7.1496081760548309e+00 -4.5484482730417701e+00 0 0 0
875 1 2 -1.1631425262646768e+00 -7.0691750508690978e+00 -4.6535348212585150e+00 0 0 0
1002 1 1 -7.3125902900276196e-01 -7.8390124031903774e+00 -4.1184165203046161e+00 0 0 0
1524 1 2 1.2601498989652293e+00 -7.2492409226541108e+00 -4.7397900092041194e+00 0 0 0
1523 1 1 9.1733739738403641e-01 -7.3513483391604701e+00 -5.6613319235841342e+00 0 0 0
1522 1 2 2.4374663226428189e-01 -7.5793087986512706e+00 -5.0682759844817289e+00 0 0 0
1084 1 1 4.3903754064416056e-01 -7.6285067429887290e+00 -4.0017401558645851e+00 0 0 0
1521 1 2 -4.3006047712928139e-02 -7.4048437838988130e+00 -5.9760136335964900e+00 0 0 0
897 1 2 -4.7449256758244820e+00 -4.6618702302986401e+00 -6.6376525915948807e+00 0 0 0
1116 1 2 -4.6412922126210239e+00 -5.3968769796932667e+00 -6.0006202969723770e+00 0 0 0
867 1 1 -4.4710851046873721e+00 -6.2871246574166859e+00 -5.0867327189313860e+00 0 0 0
890 1 2 -4.8756705260286290e+00 -5.3316209607667302e+00 -4.9528007871325181e+00 0 0 0
1115 1 2 -5.5415996453156984e+00 -5.1942359718125655e+00 -6.0778820733476255e+00 0 0 0
1114 1 1 -6.0356436219397969e+00 -5.0569486885618806e+00 -5.2030850565078079e+00 0 0 0
891 1 2 -4.8800514753943904e+00 -4.4936508022939279e+00 -4.4289975669286408e+00 0 0 0
893 1 2 -5.0263266424315258e+00 -4.4191049832164913e+00 -5.5826710026889517e+00 0 0 0
1113 1 2 -5.9592230726870117e+00 -4.7720122680330581e+00 -4.3295238884005904e+00 0 0 0
887 1 1 -4.5783052158494222e+00 -6.3986196989231070e+00 -4.1217109852742055e+00 0 0 0
889 1 2 -5.4144134591560080e+00 -5.7270530809062654e+00 -4.2169158858562863e+00 0 0 0
900 1 1 -2.5917926774638498e+00 -5.8813601164471629e+00 -5.7956812655953511e+00 0 0 0
873 1 1 -2.2120815176761988e+00 -6.7894416956510142e+00 -5.2465832764787299e+00 0 0 0
874 1 2 -1.8777439988783020e+00 -6.4924050701235965e+00 -4.4198246313596119e+00 0 0 0
870 1 2 -3.3022760355674277e+00 -6.5765532734508811e+00 -5.3435988958874248e+00 0 0 0
871 1 2 -3.5424038001695011e+00 -6.7026119064847594e+00 -4.4120997752052729e+00 0 0 0
865 1 2 -3.9405840023455672e+00 -4.8155277527876352e+00 -4.8444781236963532e+00 0 0 0
1120 1 2 -4.0563056230355263e+00 -4.2857614242941491e+00 -5.9607403531764209e+00 0 0 0
899 1 2 -2.9255649444379683e+00 -5.4556202295731433e+00 -6.5803643875129421e+00 0 0 0
1117 1 1 -3.7444409552643600e+00 -5.7647004484692230e+00 -5.8792154428505095e+00 0 0 0
866 1 2 -3.8243486968743459e+00 -5.7629883151831276e+00 -4.6796266547083754e+00 0 0 0
901 1 1 -1.8027250717025158e+00 -6.3132977330930311e+00 -6.1224583502229386e+00 0 0 0
909 1 1 -1.9045757386324469e+00 -5.1922709900193924e+00 -6.3296494830829717e+00 0 0 0
905 1 1 -1.5215673590236443e+00 -5.7171317869145177e+00 -5.1747894184346954e+00 0 0 0
869 1 1 -3.4928976144384123e+00 -6.8021856385489530e+00 -6.2979237456798343e+00 0 0 0
1096 1 1 -2.6462342444254272e+00 -5.7926342361432228e+00 -4.6937540758829472e+00 0 0 0
1118 1 2 -3.3193446466041752e+00 -4.9501941831966336e+00 -5.6225742861855306e+00 0 0 0
906 1 2 -2.2085733173802087e+00 -5.0472648738692820e+00 -5.3173140339697280e+00 0 0 0
1119 1 2 -3.1675856167305523e+00 -4.3256434522855383e+00 -6.3048886341155015e+00 0 0 0
1097 1 2 -2.9637495285973507e+00 -4.8679195425914505e+00 -4.5109589260501695e+00 0 0 0
1098 1 2 -2.3076310416873587e+00 -4.3012330547133555e+00 -4.1001917123895684e+00 0 0 0
908 1 2 -2.1638668380383943e+00 -4.2927441153181034e+00 -6.3092581848131823e+00 0 0 0
907 1 2 -2.4696094313031121e+00 -4.1470093973061193e+00 -5.4070201729973553e+00 0 0 0
1093 1 2 -1.7721194893759769e+00 -5.3278016321257766e+00 -4.1091185640483898e+00 0 0 0
1503 1 1 1.0400958300996646e-01 -5.5026991007141799e+00 -6.3974176502075633e+00 0 0 0
1508 1 2 1.1976213676621483e+00 -4.2714133122827604e+00 -6.3876202386969982e+00 0 0 0
903 1 1 -7.9087336034612721e-01 -6.3646310801351973e+00 -6.6068224057961986e+00 0 0 0
902 1 2 -1.0083391853543073e+00 -6.7414070309556262e+00 -5.7015275502021376e+00 0 0 0
904 1 2 -9.1602241943345264e-01 -5.6873293158759504e+00 -5.9553633897299161e+00 0 0 0
1090 1 2 -5.3659085405551854e-01 -6.0602917814237296e+00 -4.9322557942608123e+00 0 0 0
1520 1 2 1.0936972504510546e-01 -6.4137125234449996e+00 -5.8819374623950695e+00 0 0 0
1089 1 2 1.1155133455840746e-01 -5.5353814704040225e+00 -5.3172136412566635e+00 0 0 0
1086 1 2 4.1280942422272260e-01 -6.5535499875282355e+00 -4.8804814014487796e+00 0 0 0
1457 1 2 1.0260785133723767e+00 -6.0103481482463810e+00 -5.8583255541056243e+00 0 0 0
1525 1 2 1.2485398999344863e+00 -6.4560732532564549e+00 -4.2189692601178574e+00 0 0 0
1580 1 2 1.0948066737780751e+00 -5.5102059647648280e+00 -4.8070801928105231e+00 0 0 0
1085 1 1 -1.1957746367667463e-01 -6.8793214298280292e+00 -4.1665852865453790e+00 0 0 0
846 1 1 -1.2764792509751572e+00 -4.6554416735221764e+00 -5.6824847625364443e+00 0 0 0
1504 1 2 -2.9497449138939180e-01 -4.7433202516301751e+00 -6.0866072321950702e+00 0 0 0
1507 1 2 7.9334930920103908e-01 -4.9481874323069155e+00 -5.8376288057186452e+00 0 0 0
1088 1 2 1.4015322213223225e-01 -5.0711320595649800e+00 -4.5152944588533916e+00 0 0 0
845 1 2 -9.8039201720977476e-01 -4.9561786191193153e+00 -4.7449600040411450e+00 0 0 0
1506 1 2 5.7508977955799379e-01 -4.3663165612949184e+00 -5.0974523010811774e+00 0 0 0
1087 1 2 3.3788831443264195e-01 -5.9100375860288947e+00 -4.1794090012638057e+00 0 0 0
1091 1 2 -8.7250741965720524e-01 -5.9317544148622012e+00 -4.0392924764498233e+00 0 0 0
1477 1 2 -2.3314494810903849e-01 -4.1458236770245316e+00 -4.2674031408818749e+00 0 0 0
1505 1 2 -3.5705831940443838e-01 -4.2597033591037379e+00 -5.2805978088770775e+00 0 0 0
844 1 2 -1.2756347020458485e+00 -4.3169733580909693e+00 -4.0653115203443972e+00 0 0 0
1460 1 2 1.9820964715008822e+00 -4.9697977244514195e+00 -6.5710429985338035e+00 0 0 0
1420 1 2 3.8661184739706140e+00 -4.9918214495987900e+00 -6.6444952310672383e+00 0 0 0
1526 1 1 1.9645985200326246e+00 -6.2952096743546431e+00 -4.9932620778997077e+00 0 0 0
1578 1 2 1.3580421245221119e+00 -4.4600521304856722e+00 -4.2337801277560150e+00 0 0 0
1458 1 1 1.4872010251577066e+00 -6.3573154707391657e+00 -6.6122870489351877e+00 0 0 0
1527 1 2 2.4094775128275576e+00 -6.9428457980032254e+00 -4.4171671427900954e+00 0 0 0
1455 1 2 1.9842138396281837e+00 -4.7041749510141191e+00 -5.4499154776151215e+00 0 0 0
1606 1 1 3.4883922691394234e+00 -6.7024927288912348e+00 -4.8217264644389095e+00 0 0 0
1456 1 1 1.8641448224575545e+00 -5.5959757844933877e+00 -5.7262814550997678e+00 0 0 0
1607 1 2 2.9352174002779634e+00 -6.1750314996592488e+00 -5.4173112318166057e+00 0 0 0
1608 1 2 3.5375294766971970e+00 -5.9705741557522387e+00 -6.0780379558649846e+00 0 0 0
1584 1 2 2.9013140534013320e+00 -6.0303631364706600e+00 -4.3618237147235508e+00 0 0 0
1581 1 2 1.9616590189770984e+00 -5.3159452009610755e+00 -4.5321736760327758e+00 0 0 0
1470 1 2 2.8286147435091662e+00 -5.0821438936488637e+00 -5.0215438202721501e+00 0 0 0
1469 1 1 2.8669163234212531e+00 -5.1359234233585669e+00 -5.9812644426234867e+00 0 0 0
1450 1 2 3.6293361826781063e+00 -4.5173511197415577e+00 -4.5082505467513867e+00 0 0 0
1610 1 2 3.8189952177105178e+00 -5.6209401587978718e+00 -4.7508301261242050e+00 0 0 0
1421 1 2 3.8317330040679511e+00 -5.0291677195441684e+00 -5.6678215265504859e+00 0 0 0
1471 1 1 2.4335724264747736e+00 -4.3595788157434319e+00 -4.5569492418385726e+00 0 0 0
1419 1 2 3.4166114243799157e+00 -4.2281754146687671e+00 -6.3535112204134156e+00 0 0 0
1452 1 1 3.1992623002728831e+00 -4.1811411274317987e+00 -5.3893545183765390e+00 0 0 0
1605 1 2 3.9704609684818073e+00 -6.4693291696356701e+00 -4.0120788312658373e+00 0 0 0
1609 1 2 4.2222763229178346e+00 -6.1757223773628356e+00 -5.3621531475570174e+00 0 0 0
1611 1 1 4.5754612766264815e+00 -4.9651486767039863e+00 -4.9079888443053310e+00 0 0 0
1612 1 1 5.3308230078445629e+00 -5.5276704807247246e+00 -4.8195424513735050e+00 0 0 0
1613 1 2 6.0280678361599627e+00 -4.8469872820437541e+00 -4.7703040777882819e+00 0 0 0
1423 1 1 5.4044540454836234e+00 -4.7720076384937586e+00 -6.3791155893607039e+00 0 0 0
1422 1 2 4.6772957681741527e+00 -5.3067866209380590e+00 -5.9995196734276108e+00 0 0 0
1426 1 2 5.2056594569215537e+00 -4.1438716798460504e+00 -5.4543783595946529e+00 0 0 0